
         ----------------------------------------------------------
                                   FINDIF
                     R. A. King and Jonathon Misiewicz
         ----------------------------------------------------------

  Using finite-differences of gradients to determine vibrational frequencies and 
  normal modes. Resulting frequencies are only valid at stationary points.
    Generating geometries for use with 3-point formula.
    Displacement size will be 5.00e-03.
    Number of atoms is 3.
    Number of irreps is 4.
    Number of SALCs is 6.
    Translations projected? 1. Rotations projected? 0.
    Index of SALCs per irrep:
      1 :  0  1 
      2 :  2 
      3 :  3 
      4 :  4  5 
    Number of SALCs per irrep:
      Irrep 1: 2
      Irrep 2: 1
      Irrep 3: 1
      Irrep 4: 2
    Number of geometries (including reference) is 9.
    Number of displacements per irrep:
      Irrep 1: 4
      Irrep 2: 1
      Irrep 3: 1
      Irrep 4: 2
 9 displacements needed ...

  //>>>>>>>>>>>>>>>>>>>>>>>>>>>>>>>>>>>//
  //    FiniteDifference Computations  //
  //<<<<<<<<<<<<<<<<<<<<<<<<<<<<<<<<<<<//


    -----------------------------------------------------------------------
          Psi4: An Open-Source Ab Initio Electronic Structure Package
                               Psi4 1.8.1 release

                         Git: Rev {} zzzzzzz 


    D. G. A. Smith, L. A. Burns, A. C. Simmonett, R. M. Parrish,
    M. C. Schieber, R. Galvelis, P. Kraus, H. Kruse, R. Di Remigio,
    A. Alenaizan, A. M. James, S. Lehtola, J. P. Misiewicz, M. Scheurer,
    R. A. Shaw, J. B. Schriber, Y. Xie, Z. L. Glick, D. A. Sirianni,
    J. S. O'Brien, J. M. Waldrop, A. Kumar, E. G. Hohenstein,
    B. P. Pritchard, B. R. Brooks, H. F. Schaefer III, A. Yu. Sokolov,
    K. Patkowski, A. E. DePrince III, U. Bozkaya, R. A. King,
    F. A. Evangelista, J. M. Turney, T. D. Crawford, C. D. Sherrill,
    J. Chem. Phys. 152(18) 184108 (2020). https://doi.org/10.1063/5.0006002

                            Additional Code Authors
    E. T. Seidl, C. L. Janssen, E. F. Valeev, M. L. Leininger,
    J. F. Gonthier, R. M. Richard, H. R. McAlexander, M. Saitow, X. Wang,
    P. Verma, M. H. Lechner, A. Jiang, S. Behnle, A. G. Heide,
    M. F. Herbst, and D. L. Poole

             Previous Authors, Complete List of Code Contributors,
                       and Citations for Specific Modules
    https://github.com/psi4/psi4/blob/master/codemeta.json
    https://github.com/psi4/psi4/graphs/contributors
    http://psicode.org/psi4manual/master/introduction.html#citing-psifour

    -----------------------------------------------------------------------


    Psi4 started on: Tuesday, 30 April 2024 09:21PM

    Process ID: 23604
    Host:       G5
    PSIDATADIR: C:\Users\Mat\anaconda3\envs\psi4\Library\share\psi4
    Memory:     2.8 GiB
    Threads:    1
    
  ==> Input QCSchema <==

--------------------------------------------------------------------------
{'driver': 'gradient',
 'extras': {'psiapi': True, 'wfn_qcvars_only': True},
 'id': None,
 'keywords': {'PARENT_SYMMETRY': 'C2v(Z)',
              'SCF__D_CONVERGENCE': 1e-08,
              'SCF__E_CONVERGENCE': 1e-08,
              'function_kwargs': {}},
 'model': {'basis': 'cc-pvdz', 'method': 'scf'},
 'molecule': {'atom_labels': ['', '', ''],
              'atomic_numbers': [8, 1, 1],
              'extras': {},
              'fix_com': True,
              'fix_orientation': True,
              'fragment_charges': [0.0],
              'fragment_multiplicities': [1],
              'fragments': [[0, 1, 2]],
              'geometry': [0.0, 0.0, -0.16043556864172742, -2.917594399422967e-17, 0.9529586494503753,
                           1.2731144495828317, 2.917594399422967e-17, -0.9529586494503753, 1.2731144495828317],
              'mass_numbers': [16, 1, 1],
              'masses': [15.99491461957, 1.00782503223, 1.00782503223],
              'molecular_charge': 0.0,
              'molecular_multiplicity': 1,
              'name': 'H2O',
              'provenance': {'creator': 'QCElemental',
                             'routine': 'qcelemental.molparse.from_string',
                             'version': '0.26.0'},
              'real': [True, True, True],
              'schema_name': 'qcschema_molecule',
              'schema_version': 2,
              'symbols': ['O', 'H', 'H'],
              'validated': True},
 'protocols': {'stdout': True},
 'provenance': {'creator': 'QCElemental', 'routine': 'qcelemental.models.results', 'version': '0.26.0'},
 'schema_name': 'qcschema_input',
 'schema_version': 1}
--------------------------------------------------------------------------

Scratch directory: C:\Users\Mat\AppData\Local\Temp/
gradient() will perform analytic gradient computation.
   => Libint2 <=

    Primary   basis highest AM E, G, H:  5, 4, -
    Auxiliary basis highest AM E, G, H:  6, 5, -
    Onebody   basis highest AM E, G, H:  5, 4, 3
    Solid Harmonics ordering:            gaussian

*** tstart() called on G5
*** at Tue Apr 30 21:22:01 2024

   => Loading Basis Set <=

    Name: CC-PVDZ
    Role: ORBITAL
    Keyword: BASIS
    atoms 1   entry O          line   198 file C:\Users\Mat\anaconda3\envs\psi4\Library\share\psi4\basis\cc-pvdz.gbs 
    atoms 2-3 entry H          line    22 file C:\Users\Mat\anaconda3\envs\psi4\Library\share\psi4\basis\cc-pvdz.gbs 


         ---------------------------------------------------------
                                   SCF
               by Justin Turney, Rob Parrish, Andy Simmonett
                          and Daniel G. A. Smith
                              RHF Reference
                        1 Threads,  -1234 MiB Core
         ---------------------------------------------------------

  ==> Geometry <==

    Molecular point group: c2v
    Full point group: C2v

    Geometry (in Bohr), charge = 0, multiplicity = 1:

       Center              X                  Y                   Z               Mass       
    ------------   -----------------  -----------------  -----------------  -----------------
         O            0.000000000000     0.000000000000    -0.160435568642    15.994914619570
         H           -0.000000000000     0.952958649450     1.273114449583     1.007825032230
         H            0.000000000000    -0.952958649450     1.273114449583     1.007825032230

  Running in c2v symmetry.

  Rotational constants: A =     32.88751  B =     16.36435  C =     10.92716 [cm^-1]
  Rotational constants: A = 985942.71984  B = 490590.91235  C = 327587.89093 [MHz]
  Nuclear repulsion =    9.819476505143374

  Charge       = 0
  Multiplicity = 1
  Electrons    = 10
  Nalpha       = 5
  Nbeta        = 5

  ==> Algorithm <==

  SCF Algorithm Type is DF.
  DIIS enabled.
  MOM disabled.
  Fractional occupation disabled.
  Guess Type is SAD.
  Energy threshold   = 1.00e-08
  Density threshold  = 1.00e-08
  Integral threshold = 1.00e-12

  ==> Primary Basis <==

  Basis Set: CC-PVDZ
    Blend: CC-PVDZ
    Number of shells: 12
    Number of basis functions: 24
    Number of Cartesian functions: 25
    Spherical Harmonics?: true
    Max angular momentum: 2

   => Loading Basis Set <=

    Name: (CC-PVDZ AUX)
    Role: JKFIT
    Keyword: DF_BASIS_SCF
    atoms 1   entry O          line   221 file C:\Users\Mat\anaconda3\envs\psi4\Library\share\psi4\basis\cc-pvdz-jkfit.gbs 
    atoms 2-3 entry H          line    51 file C:\Users\Mat\anaconda3\envs\psi4\Library\share\psi4\basis\cc-pvdz-jkfit.gbs 

  ==> Integral Setup <==

  DFHelper Memory: AOs need 0.001 GiB; user supplied 2.095 GiB. 
  Using in-core AOs.

  ==> MemDFJK: Density-Fitted J/K Matrices <==

    J tasked:                   Yes
    K tasked:                   Yes
    wK tasked:                   No
    OpenMP threads:               1
    Memory [MiB]:              2145
    Algorithm:                 Core
    Schwarz Cutoff:           1E-12
    Mask sparsity (%):       0.0000
    Fitting Condition:        1E-10

   => Auxiliary Basis Set <=

  Basis Set: (CC-PVDZ AUX)
    Blend: CC-PVDZ-JKFIT
    Number of shells: 42
    Number of basis functions: 116
    Number of Cartesian functions: 131
    Spherical Harmonics?: true
    Max angular momentum: 3

  Minimum eigenvalue in the overlap matrix is 2.8924027999E-02.
  Reciprocal condition number of the overlap matrix is 8.9944215254E-03.
    Using symmetric orthogonalization.

  ==> Pre-Iterations <==

  SCF Guess: Superposition of Atomic Densities via on-the-fly atomic UHF (no occupation information).

   -------------------------
    Irrep   Nso     Nmo    
   -------------------------
     A1        11      11 
     A2         2       2 
     B1         4       4 
     B2         7       7 
   -------------------------
    Total      24      24
   -------------------------

  ==> Iterations <==

                           Total Energy        Delta E     RMS |[F,P]|

   @DF-RHF iter SAD:   -75.63542453479053   -7.56354e+01   0.00000e+00 
   @DF-RHF iter   1:   -75.89555667494663   -2.60132e-01   3.15486e-02 DIIS/ADIIS
   @DF-RHF iter   2:   -75.95262626451705   -5.70696e-02   1.81333e-02 DIIS/ADIIS
   @DF-RHF iter   3:   -75.97300877234989   -2.03825e-02   2.29776e-03 DIIS/ADIIS
   @DF-RHF iter   4:   -75.97350053721794   -4.91765e-04   3.55884e-04 DIIS/ADIIS
   @DF-RHF iter   5:   -75.97351766207629   -1.71249e-05   7.69679e-05 DIIS
   @DF-RHF iter   6:   -75.97351883721382   -1.17514e-06   1.20951e-05 DIIS
   @DF-RHF iter   7:   -75.97351887005202   -3.28382e-08   1.84861e-06 DIIS
   @DF-RHF iter   8:   -75.97351887094302   -8.91006e-10   4.18639e-07 DIIS
   @DF-RHF iter   9:   -75.97351887098986   -4.68390e-11   7.00586e-08 DIIS
   @DF-RHF iter  10:   -75.97351887099076   -8.95284e-13   4.78482e-09 DIIS
  Energy and wave function converged.


  ==> Post-Iterations <==

    Orbital Energies [Eh]
    ---------------------

    Doubly Occupied:                                                      

       1A1   -20.556422     2A1    -1.406165     3A1    -0.657448  
       1B2    -0.630441     1B1    -0.508294  

    Virtual:                                                              

       4A1     0.175060     2B2     0.269859     3B2     0.766508  
       5A1     0.887298     6A1     1.136237     2B1     1.193200  
       4B2     1.291982     7A1     1.421406     3B1     1.432704  
       1A2     1.681079     8A1     1.831358     5B2     2.195515  
       6B2     2.693567     9A1     2.696485     2A2     3.258919  
      10A1     3.264536     4B1     3.430349    11A1     3.925316  
       7B2     4.290907  

    Final Occupation by Irrep:
             A1    A2    B1    B2 
    DOCC [     3,    0,    1,    1 ]
    NA   [     3,    0,    1,    1 ]
    NB   [     3,    0,    1,    1 ]

  @DF-RHF Final Energy:   -75.97351887099076

   => Energetics <=

    Nuclear Repulsion Energy =              9.8194765051433741
    One-Electron Energy =                -124.0684498754155811
    Two-Electron Energy =                  38.2754544992814587
    Total Energy =                        -75.9735188709907447

Computation Completed


Properties will be evaluated at   0.000000,   0.000000,   0.000000 [a0]

Properties computed using the SCF density matrix


 Multipole Moments:

 ------------------------------------------------------------------------------------
     Multipole            Electronic (a.u.)      Nuclear  (a.u.)        Total (a.u.)
 ------------------------------------------------------------------------------------

 L = 1.  Multiply by 2.5417464519 to convert [e a0] to [Debye]
 Dipole X            :          0.0000000            0.0000000            0.0000000
 Dipole Y            :          0.0000000            0.0000000            0.0000000
 Dipole Z            :         -0.2833528            1.2627444            0.9793915
 Magnitude           :                                                    0.9793915

 ------------------------------------------------------------------------------------

*** tstop() called on G5 at Tue Apr 30 21:22:02 2024
Module time:
	user time   =        nan seconds =        nan minutes
	system time =        nan seconds =        nan minutes
	total time  =          1 seconds =       0.02 minutes
Total time:
	user time   =        nan seconds =        nan minutes
	system time =        nan seconds =        nan minutes
	total time  =          1 seconds =       0.02 minutes

*** tstart() called on G5
*** at Tue Apr 30 21:22:02 2024


         ------------------------------------------------------------
                                   SCF GRAD                          
                          Rob Parrish, Justin Turney,                
                       Andy Simmonett, and Alex Sokolov              
         ------------------------------------------------------------

  ==> Geometry <==

    Molecular point group: c2v
    Full point group: C2v

    Geometry (in Bohr), charge = 0, multiplicity = 1:

       Center              X                  Y                   Z               Mass       
    ------------   -----------------  -----------------  -----------------  -----------------
         O            0.000000000000     0.000000000000    -0.160435568642    15.994914619570
         H           -0.000000000000     0.952958649450     1.273114449583     1.007825032230
         H            0.000000000000    -0.952958649450     1.273114449583     1.007825032230

  Nuclear repulsion =    9.819476505143374

  ==> Basis Set <==

  Basis Set: CC-PVDZ
    Blend: CC-PVDZ
    Number of shells: 12
    Number of basis functions: 24
    Number of Cartesian functions: 25
    Spherical Harmonics?: true
    Max angular momentum: 2

  ==> DFJKGrad: Density-Fitted SCF Gradients <==

    Gradient:                    1
    J tasked:                  Yes
    K tasked:                  Yes
    wK tasked:                  No
    OpenMP threads:              1
    Integrals threads:           1
    Memory [MiB]:             -927
    Schwarz Cutoff:          1E-12
    Fitting Condition:       1E-10

   => Auxiliary Basis Set <=

  Basis Set: (CC-PVDZ AUX)
    Blend: CC-PVDZ-JKFIT
    Number of shells: 42
    Number of basis functions: 116
    Number of Cartesian functions: 131
    Spherical Harmonics?: true
    Max angular momentum: 3


  -Total Gradient:
     Atom            X                  Y                   Z
    ------   -----------------  -----------------  -----------------
       1       -0.000000000000     0.000000000000     0.030954413635
       2        0.000000000000    -0.125398451154    -0.015477206818
       3       -0.000000000000     0.125398451154    -0.015477206818


*** tstop() called on G5 at Tue Apr 30 21:22:02 2024
Module time:
	user time   =        nan seconds =        nan minutes
	system time =        nan seconds =        nan minutes
	total time  =          0 seconds =       0.00 minutes
Total time:
	user time   =        nan seconds =        nan minutes
	system time =        nan seconds =        nan minutes
	total time  =          1 seconds =       0.02 minutes

    Psi4 stopped on: Tuesday, 30 April 2024 09:22PM
    Psi4 wall time for execution: 0:00:01.09


    -----------------------------------------------------------------------
          Psi4: An Open-Source Ab Initio Electronic Structure Package
                               Psi4 1.8.1 release

                         Git: Rev {} zzzzzzz 


    D. G. A. Smith, L. A. Burns, A. C. Simmonett, R. M. Parrish,
    M. C. Schieber, R. Galvelis, P. Kraus, H. Kruse, R. Di Remigio,
    A. Alenaizan, A. M. James, S. Lehtola, J. P. Misiewicz, M. Scheurer,
    R. A. Shaw, J. B. Schriber, Y. Xie, Z. L. Glick, D. A. Sirianni,
    J. S. O'Brien, J. M. Waldrop, A. Kumar, E. G. Hohenstein,
    B. P. Pritchard, B. R. Brooks, H. F. Schaefer III, A. Yu. Sokolov,
    K. Patkowski, A. E. DePrince III, U. Bozkaya, R. A. King,
    F. A. Evangelista, J. M. Turney, T. D. Crawford, C. D. Sherrill,
    J. Chem. Phys. 152(18) 184108 (2020). https://doi.org/10.1063/5.0006002

                            Additional Code Authors
    E. T. Seidl, C. L. Janssen, E. F. Valeev, M. L. Leininger,
    J. F. Gonthier, R. M. Richard, H. R. McAlexander, M. Saitow, X. Wang,
    P. Verma, M. H. Lechner, A. Jiang, S. Behnle, A. G. Heide,
    M. F. Herbst, and D. L. Poole

             Previous Authors, Complete List of Code Contributors,
                       and Citations for Specific Modules
    https://github.com/psi4/psi4/blob/master/codemeta.json
    https://github.com/psi4/psi4/graphs/contributors
    http://psicode.org/psi4manual/master/introduction.html#citing-psifour

    -----------------------------------------------------------------------


    Psi4 started on: Tuesday, 30 April 2024 09:21PM

    Process ID: 23604
    Host:       G5
    PSIDATADIR: C:\Users\Mat\anaconda3\envs\psi4\Library\share\psi4
    Memory:     2.8 GiB
    Threads:    1
    
  ==> Input QCSchema <==

--------------------------------------------------------------------------
{'driver': 'gradient',
 'extras': {'psiapi': True, 'wfn_qcvars_only': True},
 'id': None,
 'keywords': {'PARENT_SYMMETRY': 'C2v(Z)',
              'SCF__D_CONVERGENCE': 1e-08,
              'SCF__E_CONVERGENCE': 1e-08,
              'function_kwargs': {'write_orbitals': False}},
 'model': {'basis': 'cc-pvdz', 'method': 'scf'},
 'molecule': {'atom_labels': ['', '', ''],
              'atomic_numbers': [8, 1, 1],
              'extras': {},
              'fix_com': True,
              'fix_orientation': True,
              'fragment_charges': [0.0],
              'fragment_multiplicities': [1],
              'fragments': [[0, 1, 2]],
              'geometry': [0.0, 0.0, -0.16085380611763817, -2.9175943994229676e-17, 0.9529586494503753,
                           1.2764333157073884, 2.9175943994229676e-17, -0.9529586494503753, 1.2764333157073884],
              'mass_numbers': [16, 1, 1],
              'masses': [15.99491461957, 1.00782503223, 1.00782503223],
              'molecular_charge': 0.0,
              'molecular_multiplicity': 1,
              'name': 'H2O',
              'provenance': {'creator': 'QCElemental',
                             'routine': 'qcelemental.molparse.from_string',
                             'version': '0.26.0'},
              'real': [True, True, True],
              'schema_name': 'qcschema_molecule',
              'schema_version': 2,
              'symbols': ['O', 'H', 'H'],
              'validated': True},
 'protocols': {'stdout': True},
 'provenance': {'creator': 'QCElemental', 'routine': 'qcelemental.models.results', 'version': '0.26.0'},
 'schema_name': 'qcschema_input',
 'schema_version': 1}
--------------------------------------------------------------------------

Scratch directory: C:\Users\Mat\AppData\Local\Temp/
gradient() will perform analytic gradient computation.
   => Libint2 <=

    Primary   basis highest AM E, G, H:  5, 4, -
    Auxiliary basis highest AM E, G, H:  6, 5, -
    Onebody   basis highest AM E, G, H:  5, 4, 3
    Solid Harmonics ordering:            gaussian

*** tstart() called on G5
*** at Tue Apr 30 21:22:03 2024

   => Loading Basis Set <=

    Name: CC-PVDZ
    Role: ORBITAL
    Keyword: BASIS
    atoms 1   entry O          line   198 file C:\Users\Mat\anaconda3\envs\psi4\Library\share\psi4\basis\cc-pvdz.gbs 
    atoms 2-3 entry H          line    22 file C:\Users\Mat\anaconda3\envs\psi4\Library\share\psi4\basis\cc-pvdz.gbs 


         ---------------------------------------------------------
                                   SCF
               by Justin Turney, Rob Parrish, Andy Simmonett
                          and Daniel G. A. Smith
                              RHF Reference
                        1 Threads,  -1234 MiB Core
         ---------------------------------------------------------

  ==> Geometry <==

    Molecular point group: c2v
    Full point group: C2v

    Geometry (in Bohr), charge = 0, multiplicity = 1:

       Center              X                  Y                   Z               Mass       
    ------------   -----------------  -----------------  -----------------  -----------------
         O            0.000000000000     0.000000000000    -0.160853806118    15.994914619570
         H           -0.000000000000     0.952958649450     1.276433315707     1.007825032230
         H            0.000000000000    -0.952958649450     1.276433315707     1.007825032230

  Running in c2v symmetry.

  Rotational constants: A =     32.88751  B =     16.27936  C =     10.88920 [cm^-1]
  Rotational constants: A = 985942.71984  B = 488043.04904  C = 326449.88936 [MHz]
  Nuclear repulsion =    9.802695584363182

  Charge       = 0
  Multiplicity = 1
  Electrons    = 10
  Nalpha       = 5
  Nbeta        = 5

  ==> Algorithm <==

  SCF Algorithm Type is DF.
  DIIS enabled.
  MOM disabled.
  Fractional occupation disabled.
  Guess Type is SAD.
  Energy threshold   = 1.00e-08
  Density threshold  = 1.00e-08
  Integral threshold = 1.00e-12

  ==> Primary Basis <==

  Basis Set: CC-PVDZ
    Blend: CC-PVDZ
    Number of shells: 12
    Number of basis functions: 24
    Number of Cartesian functions: 25
    Spherical Harmonics?: true
    Max angular momentum: 2

   => Loading Basis Set <=

    Name: (CC-PVDZ AUX)
    Role: JKFIT
    Keyword: DF_BASIS_SCF
    atoms 1   entry O          line   221 file C:\Users\Mat\anaconda3\envs\psi4\Library\share\psi4\basis\cc-pvdz-jkfit.gbs 
    atoms 2-3 entry H          line    51 file C:\Users\Mat\anaconda3\envs\psi4\Library\share\psi4\basis\cc-pvdz-jkfit.gbs 

  ==> Integral Setup <==

  DFHelper Memory: AOs need 0.001 GiB; user supplied 2.095 GiB. 
  Using in-core AOs.

  ==> MemDFJK: Density-Fitted J/K Matrices <==

    J tasked:                   Yes
    K tasked:                   Yes
    wK tasked:                   No
    OpenMP threads:               1
    Memory [MiB]:              2145
    Algorithm:                 Core
    Schwarz Cutoff:           1E-12
    Mask sparsity (%):       0.0000
    Fitting Condition:        1E-10

   => Auxiliary Basis Set <=

  Basis Set: (CC-PVDZ AUX)
    Blend: CC-PVDZ-JKFIT
    Number of shells: 42
    Number of basis functions: 116
    Number of Cartesian functions: 131
    Spherical Harmonics?: true
    Max angular momentum: 3

  Minimum eigenvalue in the overlap matrix is 2.9029180888E-02.
  Reciprocal condition number of the overlap matrix is 9.0310668034E-03.
    Using symmetric orthogonalization.

  ==> Pre-Iterations <==

  SCF Guess: Superposition of Atomic Densities via on-the-fly atomic UHF (no occupation information).

   -------------------------
    Irrep   Nso     Nmo    
   -------------------------
     A1        11      11 
     A2         2       2 
     B1         4       4 
     B2         7       7 
   -------------------------
    Total      24      24
   -------------------------

  ==> Iterations <==

                           Total Energy        Delta E     RMS |[F,P]|

   @DF-RHF iter SAD:   -75.63364573499742   -7.56336e+01   0.00000e+00 
   @DF-RHF iter   1:   -75.89554867443869   -2.61903e-01   3.15463e-02 DIIS/ADIIS
   @DF-RHF iter   2:   -75.95263417884838   -5.70855e-02   1.81710e-02 DIIS/ADIIS
   @DF-RHF iter   3:   -75.97311428150515   -2.04801e-02   2.30598e-03 DIIS/ADIIS
   @DF-RHF iter   4:   -75.97360954729882   -4.95266e-04   3.57726e-04 DIIS/ADIIS
   @DF-RHF iter   5:   -75.97362686015056   -1.73129e-05   7.72585e-05 DIIS
   @DF-RHF iter   6:   -75.97362804500597   -1.18486e-06   1.21295e-05 DIIS
   @DF-RHF iter   7:   -75.97362807808227   -3.30763e-08   1.86879e-06 DIIS
   @DF-RHF iter   8:   -75.97362807899614   -9.13872e-10   4.24503e-07 DIIS
   @DF-RHF iter   9:   -75.97362807904443   -4.82885e-11   7.07187e-08 DIIS
   @DF-RHF iter  10:   -75.97362807904534   -9.09495e-13   4.81607e-09 DIIS
  Energy and wave function converged.


  ==> Post-Iterations <==

    Orbital Energies [Eh]
    ---------------------

    Doubly Occupied:                                                      

       1A1   -20.556790     2A1    -1.405221     3A1    -0.657422  
       1B2    -0.629416     1B1    -0.508200  

    Virtual:                                                              

       4A1     0.174763     2B2     0.269596     3B2     0.765551  
       5A1     0.884748     6A1     1.136316     2B1     1.193250  
       4B2     1.292155     7A1     1.421565     3B1     1.431459  
       1A2     1.681413     8A1     1.831496     5B2     2.193395  
       9A1     2.691162     6B2     2.692461     2A2     3.257141  
      10A1     3.261900     4B1     3.428429    11A1     3.924604  
       7B2     4.287346  

    Final Occupation by Irrep:
             A1    A2    B1    B2 
    DOCC [     3,    0,    1,    1 ]
    NA   [     3,    0,    1,    1 ]
    NB   [     3,    0,    1,    1 ]

  @DF-RHF Final Energy:   -75.97362807904534

   => Energetics <=

    Nuclear Repulsion Energy =              9.8026955843631818
    One-Electron Energy =                -124.0385484703446508
    Two-Electron Energy =                  38.2622248069361248
    Total Energy =                        -75.9736280790453407

Computation Completed


Properties will be evaluated at   0.000000,   0.000000,   0.000000 [a0]

Properties computed using the SCF density matrix


 Multipole Moments:

 ------------------------------------------------------------------------------------
     Multipole            Electronic (a.u.)      Nuclear  (a.u.)        Total (a.u.)
 ------------------------------------------------------------------------------------

 L = 1.  Multiply by 2.5417464519 to convert [e a0] to [Debye]
 Dipole X            :          0.0000000            0.0000000            0.0000000
 Dipole Y            :          0.0000000            0.0000000            0.0000000
 Dipole Z            :         -0.2852685            1.2660362            0.9807677
 Magnitude           :                                                    0.9807677

 ------------------------------------------------------------------------------------

*** tstop() called on G5 at Tue Apr 30 21:22:03 2024
Module time:
	user time   =        nan seconds =        nan minutes
	system time =        nan seconds =        nan minutes
	total time  =          0 seconds =       0.00 minutes
Total time:
	user time   =        nan seconds =        nan minutes
	system time =        nan seconds =        nan minutes
	total time  =          2 seconds =       0.03 minutes

*** tstart() called on G5
*** at Tue Apr 30 21:22:03 2024


         ------------------------------------------------------------
                                   SCF GRAD                          
                          Rob Parrish, Justin Turney,                
                       Andy Simmonett, and Alex Sokolov              
         ------------------------------------------------------------

  ==> Geometry <==

    Molecular point group: c2v
    Full point group: C2v

    Geometry (in Bohr), charge = 0, multiplicity = 1:

       Center              X                  Y                   Z               Mass       
    ------------   -----------------  -----------------  -----------------  -----------------
         O            0.000000000000     0.000000000000    -0.160853806118    15.994914619570
         H           -0.000000000000     0.952958649450     1.276433315707     1.007825032230
         H            0.000000000000    -0.952958649450     1.276433315707     1.007825032230

  Nuclear repulsion =    9.802695584363182

  ==> Basis Set <==

  Basis Set: CC-PVDZ
    Blend: CC-PVDZ
    Number of shells: 12
    Number of basis functions: 24
    Number of Cartesian functions: 25
    Spherical Harmonics?: true
    Max angular momentum: 2

  ==> DFJKGrad: Density-Fitted SCF Gradients <==

    Gradient:                    1
    J tasked:                  Yes
    K tasked:                  Yes
    wK tasked:                  No
    OpenMP threads:              1
    Integrals threads:           1
    Memory [MiB]:             -927
    Schwarz Cutoff:          1E-12
    Fitting Condition:       1E-10

   => Auxiliary Basis Set <=

  Basis Set: (CC-PVDZ AUX)
    Blend: CC-PVDZ-JKFIT
    Number of shells: 42
    Number of basis functions: 116
    Number of Cartesian functions: 131
    Spherical Harmonics?: true
    Max angular momentum: 3


  -Total Gradient:
     Atom            X                  Y                   Z
    ------   -----------------  -----------------  -----------------
       1        0.000000000000     0.000000000000     0.027497050417
       2        0.000000000000    -0.124066975207    -0.013748525209
       3       -0.000000000000     0.124066975207    -0.013748525209


*** tstop() called on G5 at Tue Apr 30 21:22:03 2024
Module time:
	user time   =        nan seconds =        nan minutes
	system time =        nan seconds =        nan minutes
	total time  =          0 seconds =       0.00 minutes
Total time:
	user time   =        nan seconds =        nan minutes
	system time =        nan seconds =        nan minutes
	total time  =          2 seconds =       0.03 minutes

    Psi4 stopped on: Tuesday, 30 April 2024 09:22PM
    Psi4 wall time for execution: 0:00:00.57


    -----------------------------------------------------------------------
          Psi4: An Open-Source Ab Initio Electronic Structure Package
                               Psi4 1.8.1 release

                         Git: Rev {} zzzzzzz 


    D. G. A. Smith, L. A. Burns, A. C. Simmonett, R. M. Parrish,
    M. C. Schieber, R. Galvelis, P. Kraus, H. Kruse, R. Di Remigio,
    A. Alenaizan, A. M. James, S. Lehtola, J. P. Misiewicz, M. Scheurer,
    R. A. Shaw, J. B. Schriber, Y. Xie, Z. L. Glick, D. A. Sirianni,
    J. S. O'Brien, J. M. Waldrop, A. Kumar, E. G. Hohenstein,
    B. P. Pritchard, B. R. Brooks, H. F. Schaefer III, A. Yu. Sokolov,
    K. Patkowski, A. E. DePrince III, U. Bozkaya, R. A. King,
    F. A. Evangelista, J. M. Turney, T. D. Crawford, C. D. Sherrill,
    J. Chem. Phys. 152(18) 184108 (2020). https://doi.org/10.1063/5.0006002

                            Additional Code Authors
    E. T. Seidl, C. L. Janssen, E. F. Valeev, M. L. Leininger,
    J. F. Gonthier, R. M. Richard, H. R. McAlexander, M. Saitow, X. Wang,
    P. Verma, M. H. Lechner, A. Jiang, S. Behnle, A. G. Heide,
    M. F. Herbst, and D. L. Poole

             Previous Authors, Complete List of Code Contributors,
                       and Citations for Specific Modules
    https://github.com/psi4/psi4/blob/master/codemeta.json
    https://github.com/psi4/psi4/graphs/contributors
    http://psicode.org/psi4manual/master/introduction.html#citing-psifour

    -----------------------------------------------------------------------


    Psi4 started on: Tuesday, 30 April 2024 09:21PM

    Process ID: 23604
    Host:       G5
    PSIDATADIR: C:\Users\Mat\anaconda3\envs\psi4\Library\share\psi4
    Memory:     2.8 GiB
    Threads:    1
    
  ==> Input QCSchema <==

--------------------------------------------------------------------------
{'driver': 'gradient',
 'extras': {'psiapi': True, 'wfn_qcvars_only': True},
 'id': None,
 'keywords': {'PARENT_SYMMETRY': 'C2v(Z)',
              'SCF__D_CONVERGENCE': 1e-08,
              'SCF__E_CONVERGENCE': 1e-08,
              'function_kwargs': {'write_orbitals': False}},
 'model': {'basis': 'cc-pvdz', 'method': 'scf'},
 'molecule': {'atom_labels': ['', '', ''],
              'atomic_numbers': [8, 1, 1],
              'extras': {},
              'fix_com': True,
              'fix_orientation': True,
              'fragment_charges': [0.0],
              'fragment_multiplicities': [1],
              'fragments': [[0, 1, 2]],
              'geometry': [0.0, 0.0, -0.16001733116581668, -2.9175943994229676e-17, 0.9529586494503753,
                           1.269795583458275, 2.9175943994229676e-17, -0.9529586494503753, 1.269795583458275],
              'mass_numbers': [16, 1, 1],
              'masses': [15.99491461957, 1.00782503223, 1.00782503223],
              'molecular_charge': 0.0,
              'molecular_multiplicity': 1,
              'name': 'H2O',
              'provenance': {'creator': 'QCElemental',
                             'routine': 'qcelemental.molparse.from_string',
                             'version': '0.26.0'},
              'real': [True, True, True],
              'schema_name': 'qcschema_molecule',
              'schema_version': 2,
              'symbols': ['O', 'H', 'H'],
              'validated': True},
 'protocols': {'stdout': True},
 'provenance': {'creator': 'QCElemental', 'routine': 'qcelemental.models.results', 'version': '0.26.0'},
 'schema_name': 'qcschema_input',
 'schema_version': 1}
--------------------------------------------------------------------------

Scratch directory: C:\Users\Mat\AppData\Local\Temp/
gradient() will perform analytic gradient computation.
   => Libint2 <=

    Primary   basis highest AM E, G, H:  5, 4, -
    Auxiliary basis highest AM E, G, H:  6, 5, -
    Onebody   basis highest AM E, G, H:  5, 4, 3
    Solid Harmonics ordering:            gaussian

*** tstart() called on G5
*** at Tue Apr 30 21:22:03 2024

   => Loading Basis Set <=

    Name: CC-PVDZ
    Role: ORBITAL
    Keyword: BASIS
    atoms 1   entry O          line   198 file C:\Users\Mat\anaconda3\envs\psi4\Library\share\psi4\basis\cc-pvdz.gbs 
    atoms 2-3 entry H          line    22 file C:\Users\Mat\anaconda3\envs\psi4\Library\share\psi4\basis\cc-pvdz.gbs 


         ---------------------------------------------------------
                                   SCF
               by Justin Turney, Rob Parrish, Andy Simmonett
                          and Daniel G. A. Smith
                              RHF Reference
                        1 Threads,  -1234 MiB Core
         ---------------------------------------------------------

  ==> Geometry <==

    Molecular point group: c2v
    Full point group: C2v

    Geometry (in Bohr), charge = 0, multiplicity = 1:

       Center              X                  Y                   Z               Mass       
    ------------   -----------------  -----------------  -----------------  -----------------
         O            0.000000000000     0.000000000000    -0.160017331166    15.994914619570
         H           -0.000000000000     0.952958649450     1.269795583458     1.007825032230
         H            0.000000000000    -0.952958649450     1.269795583458     1.007825032230

  Running in c2v symmetry.

  Rotational constants: A =     32.88751  B =     16.45001  C =     10.96528 [cm^-1]
  Rotational constants: A = 985942.71984  B = 493158.77981  C = 328730.86045 [MHz]
  Nuclear repulsion =    9.836304763976228

  Charge       = 0
  Multiplicity = 1
  Electrons    = 10
  Nalpha       = 5
  Nbeta        = 5

  ==> Algorithm <==

  SCF Algorithm Type is DF.
  DIIS enabled.
  MOM disabled.
  Fractional occupation disabled.
  Guess Type is SAD.
  Energy threshold   = 1.00e-08
  Density threshold  = 1.00e-08
  Integral threshold = 1.00e-12

  ==> Primary Basis <==

  Basis Set: CC-PVDZ
    Blend: CC-PVDZ
    Number of shells: 12
    Number of basis functions: 24
    Number of Cartesian functions: 25
    Spherical Harmonics?: true
    Max angular momentum: 2

   => Loading Basis Set <=

    Name: (CC-PVDZ AUX)
    Role: JKFIT
    Keyword: DF_BASIS_SCF
    atoms 1   entry O          line   221 file C:\Users\Mat\anaconda3\envs\psi4\Library\share\psi4\basis\cc-pvdz-jkfit.gbs 
    atoms 2-3 entry H          line    51 file C:\Users\Mat\anaconda3\envs\psi4\Library\share\psi4\basis\cc-pvdz-jkfit.gbs 

  ==> Integral Setup <==

  DFHelper Memory: AOs need 0.001 GiB; user supplied 2.095 GiB. 
  Using in-core AOs.

  ==> MemDFJK: Density-Fitted J/K Matrices <==

    J tasked:                   Yes
    K tasked:                   Yes
    wK tasked:                   No
    OpenMP threads:               1
    Memory [MiB]:              2145
    Algorithm:                 Core
    Schwarz Cutoff:           1E-12
    Mask sparsity (%):       0.0000
    Fitting Condition:        1E-10

   => Auxiliary Basis Set <=

  Basis Set: (CC-PVDZ AUX)
    Blend: CC-PVDZ-JKFIT
    Number of shells: 42
    Number of basis functions: 116
    Number of Cartesian functions: 131
    Spherical Harmonics?: true
    Max angular momentum: 3

  Minimum eigenvalue in the overlap matrix is 2.8819290530E-02.
  Reciprocal condition number of the overlap matrix is 8.9579497858E-03.
    Using symmetric orthogonalization.

  ==> Pre-Iterations <==

  SCF Guess: Superposition of Atomic Densities via on-the-fly atomic UHF (no occupation information).

   -------------------------
    Irrep   Nso     Nmo    
   -------------------------
     A1        11      11 
     A2         2       2 
     B1         4       4 
     B2         7       7 
   -------------------------
    Total      24      24
   -------------------------

  ==> Iterations <==

                           Total Energy        Delta E     RMS |[F,P]|

   @DF-RHF iter SAD:   -75.63719218643550   -7.56372e+01   0.00000e+00 
   @DF-RHF iter   1:   -75.89555009237260   -2.58358e-01   3.15512e-02 DIIS/ADIIS
   @DF-RHF iter   2:   -75.95260438376528   -5.70543e-02   1.80959e-02 DIIS/ADIIS
   @DF-RHF iter   3:   -75.97289022624550   -2.02858e-02   2.28963e-03 DIIS/ADIIS
   @DF-RHF iter   4:   -75.97337853719611   -4.88311e-04   3.54043e-04 DIIS/ADIIS
   @DF-RHF iter   5:   -75.97339547431220   -1.69371e-05   7.66719e-05 DIIS
   @DF-RHF iter   6:   -75.97339663954762   -1.16524e-06   1.20593e-05 DIIS
   @DF-RHF iter   7:   -75.97339667213953   -3.25919e-08   1.82835e-06 DIIS
   @DF-RHF iter   8:   -75.97339667300795   -8.68425e-10   4.12790e-07 DIIS
   @DF-RHF iter   9:   -75.97339667305346   -4.55032e-11   6.94009e-08 DIIS
   @DF-RHF iter  10:   -75.97339667305430   -8.38440e-13   4.75419e-09 DIIS
  Energy and wave function converged.


  ==> Post-Iterations <==

    Orbital Energies [Eh]
    ---------------------

    Doubly Occupied:                                                      

       1A1   -20.556054     2A1    -1.407110     3A1    -0.657473  
       1B2    -0.631471     1B1    -0.508389  

    Virtual:                                                              

       4A1     0.175356     2B2     0.270120     3B2     0.767473  
       5A1     0.889853     6A1     1.136165     2B1     1.193142  
       4B2     1.291809     7A1     1.421246     3B1     1.433964  
       1A2     1.680745     8A1     1.831222     5B2     2.197631  
       6B2     2.694692     9A1     2.701810     2A2     3.260704  
      10A1     3.267196     4B1     3.432267    11A1     3.926034  
       7B2     4.294460  

    Final Occupation by Irrep:
             A1    A2    B1    B2 
    DOCC [     3,    0,    1,    1 ]
    NA   [     3,    0,    1,    1 ]
    NB   [     3,    0,    1,    1 ]

  @DF-RHF Final Energy:   -75.97339667305430

   => Energetics <=

    Nuclear Repulsion Energy =              9.8363047639762282
    One-Electron Energy =                -124.0984103667120024
    Two-Electron Energy =                  38.2887089296814764
    Total Energy =                        -75.9733966730542960

Computation Completed


Properties will be evaluated at   0.000000,   0.000000,   0.000000 [a0]

Properties computed using the SCF density matrix


 Multipole Moments:

 ------------------------------------------------------------------------------------
     Multipole            Electronic (a.u.)      Nuclear  (a.u.)        Total (a.u.)
 ------------------------------------------------------------------------------------

 L = 1.  Multiply by 2.5417464519 to convert [e a0] to [Debye]
 Dipole X            :          0.0000000            0.0000000            0.0000000
 Dipole Y            :          0.0000000            0.0000000            0.0000000
 Dipole Z            :         -0.2814431            1.2594525            0.9780094
 Magnitude           :                                                    0.9780094

 ------------------------------------------------------------------------------------

*** tstop() called on G5 at Tue Apr 30 21:22:04 2024
Module time:
	user time   =        nan seconds =        nan minutes
	system time =        nan seconds =        nan minutes
	total time  =          1 seconds =       0.02 minutes
Total time:
	user time   =        nan seconds =        nan minutes
	system time =        nan seconds =        nan minutes
	total time  =          3 seconds =       0.05 minutes

*** tstart() called on G5
*** at Tue Apr 30 21:22:04 2024


         ------------------------------------------------------------
                                   SCF GRAD                          
                          Rob Parrish, Justin Turney,                
                       Andy Simmonett, and Alex Sokolov              
         ------------------------------------------------------------

  ==> Geometry <==

    Molecular point group: c2v
    Full point group: C2v

    Geometry (in Bohr), charge = 0, multiplicity = 1:

       Center              X                  Y                   Z               Mass       
    ------------   -----------------  -----------------  -----------------  -----------------
         O            0.000000000000     0.000000000000    -0.160017331166    15.994914619570
         H           -0.000000000000     0.952958649450     1.269795583458     1.007825032230
         H            0.000000000000    -0.952958649450     1.269795583458     1.007825032230

  Nuclear repulsion =    9.836304763976228

  ==> Basis Set <==

  Basis Set: CC-PVDZ
    Blend: CC-PVDZ
    Number of shells: 12
    Number of basis functions: 24
    Number of Cartesian functions: 25
    Spherical Harmonics?: true
    Max angular momentum: 2

  ==> DFJKGrad: Density-Fitted SCF Gradients <==

    Gradient:                    1
    J tasked:                  Yes
    K tasked:                  Yes
    wK tasked:                  No
    OpenMP threads:              1
    Integrals threads:           1
    Memory [MiB]:             -927
    Schwarz Cutoff:          1E-12
    Fitting Condition:       1E-10

   => Auxiliary Basis Set <=

  Basis Set: (CC-PVDZ AUX)
    Blend: CC-PVDZ-JKFIT
    Number of shells: 42
    Number of basis functions: 116
    Number of Cartesian functions: 131
    Spherical Harmonics?: true
    Max angular momentum: 3


  -Total Gradient:
     Atom            X                  Y                   Z
    ------   -----------------  -----------------  -----------------
       1        0.000000000000     0.000000000000     0.034448931609
       2        0.000000000000    -0.126745032407    -0.017224465804
       3       -0.000000000000     0.126745032407    -0.017224465804


*** tstop() called on G5 at Tue Apr 30 21:22:04 2024
Module time:
	user time   =        nan seconds =        nan minutes
	system time =        nan seconds =        nan minutes
	total time  =          0 seconds =       0.00 minutes
Total time:
	user time   =        nan seconds =        nan minutes
	system time =        nan seconds =        nan minutes
	total time  =          3 seconds =       0.05 minutes

    Psi4 stopped on: Tuesday, 30 April 2024 09:22PM
    Psi4 wall time for execution: 0:00:00.63


    -----------------------------------------------------------------------
          Psi4: An Open-Source Ab Initio Electronic Structure Package
                               Psi4 1.8.1 release

                         Git: Rev {} zzzzzzz 


    D. G. A. Smith, L. A. Burns, A. C. Simmonett, R. M. Parrish,
    M. C. Schieber, R. Galvelis, P. Kraus, H. Kruse, R. Di Remigio,
    A. Alenaizan, A. M. James, S. Lehtola, J. P. Misiewicz, M. Scheurer,
    R. A. Shaw, J. B. Schriber, Y. Xie, Z. L. Glick, D. A. Sirianni,
    J. S. O'Brien, J. M. Waldrop, A. Kumar, E. G. Hohenstein,
    B. P. Pritchard, B. R. Brooks, H. F. Schaefer III, A. Yu. Sokolov,
    K. Patkowski, A. E. DePrince III, U. Bozkaya, R. A. King,
    F. A. Evangelista, J. M. Turney, T. D. Crawford, C. D. Sherrill,
    J. Chem. Phys. 152(18) 184108 (2020). https://doi.org/10.1063/5.0006002

                            Additional Code Authors
    E. T. Seidl, C. L. Janssen, E. F. Valeev, M. L. Leininger,
    J. F. Gonthier, R. M. Richard, H. R. McAlexander, M. Saitow, X. Wang,
    P. Verma, M. H. Lechner, A. Jiang, S. Behnle, A. G. Heide,
    M. F. Herbst, and D. L. Poole

             Previous Authors, Complete List of Code Contributors,
                       and Citations for Specific Modules
    https://github.com/psi4/psi4/blob/master/codemeta.json
    https://github.com/psi4/psi4/graphs/contributors
    http://psicode.org/psi4manual/master/introduction.html#citing-psifour

    -----------------------------------------------------------------------


    Psi4 started on: Tuesday, 30 April 2024 09:21PM

    Process ID: 23604
    Host:       G5
    PSIDATADIR: C:\Users\Mat\anaconda3\envs\psi4\Library\share\psi4
    Memory:     2.8 GiB
    Threads:    1
    
  ==> Input QCSchema <==

--------------------------------------------------------------------------
{'driver': 'gradient',
 'extras': {'psiapi': True, 'wfn_qcvars_only': True},
 'id': None,
 'keywords': {'PARENT_SYMMETRY': 'C2v(Z)',
              'SCF__D_CONVERGENCE': 1e-08,
              'SCF__E_CONVERGENCE': 1e-08,
              'function_kwargs': {'write_orbitals': False}},
 'model': {'basis': 'cc-pvdz', 'method': 'scf'},
 'molecule': {'atom_labels': ['', '', ''],
              'atomic_numbers': [8, 1, 1],
              'extras': {},
              'fix_com': True,
              'fix_orientation': True,
              'fragment_charges': [0.0],
              'fragment_multiplicities': [1],
              'fragments': [[0, 1, 2]],
              'geometry': [0.0, 0.0, -0.16043556864172742, -2.906812052620056e-17, 0.9494368677218252,
                           1.2731144495828317, 2.906812052620056e-17, -0.9494368677218252, 1.2731144495828317],
              'mass_numbers': [16, 1, 1],
              'masses': [15.99491461957, 1.00782503223, 1.00782503223],
              'molecular_charge': 0.0,
              'molecular_multiplicity': 1,
              'name': 'H2O',
              'provenance': {'creator': 'QCElemental',
                             'routine': 'qcelemental.molparse.from_string',
                             'version': '0.26.0'},
              'real': [True, True, True],
              'schema_name': 'qcschema_molecule',
              'schema_version': 2,
              'symbols': ['O', 'H', 'H'],
              'validated': True},
 'protocols': {'stdout': True},
 'provenance': {'creator': 'QCElemental', 'routine': 'qcelemental.models.results', 'version': '0.26.0'},
 'schema_name': 'qcschema_input',
 'schema_version': 1}
--------------------------------------------------------------------------

Scratch directory: C:\Users\Mat\AppData\Local\Temp/
gradient() will perform analytic gradient computation.
   => Libint2 <=

    Primary   basis highest AM E, G, H:  5, 4, -
    Auxiliary basis highest AM E, G, H:  6, 5, -
    Onebody   basis highest AM E, G, H:  5, 4, 3
    Solid Harmonics ordering:            gaussian

*** tstart() called on G5
*** at Tue Apr 30 21:22:04 2024

   => Loading Basis Set <=

    Name: CC-PVDZ
    Role: ORBITAL
    Keyword: BASIS
    atoms 1   entry O          line   198 file C:\Users\Mat\anaconda3\envs\psi4\Library\share\psi4\basis\cc-pvdz.gbs 
    atoms 2-3 entry H          line    22 file C:\Users\Mat\anaconda3\envs\psi4\Library\share\psi4\basis\cc-pvdz.gbs 


         ---------------------------------------------------------
                                   SCF
               by Justin Turney, Rob Parrish, Andy Simmonett
                          and Daniel G. A. Smith
                              RHF Reference
                        1 Threads,  -1234 MiB Core
         ---------------------------------------------------------

  ==> Geometry <==

    Molecular point group: c2v
    Full point group: C2v

    Geometry (in Bohr), charge = 0, multiplicity = 1:

       Center              X                  Y                   Z               Mass       
    ------------   -----------------  -----------------  -----------------  -----------------
         O            0.000000000000     0.000000000000    -0.160435568642    15.994914619570
         H           -0.000000000000     0.949436867722     1.273114449583     1.007825032230
         H            0.000000000000    -0.949436867722     1.273114449583     1.007825032230

  Running in c2v symmetry.

  Rotational constants: A =     33.13194  B =     16.36435  C =     10.95401 [cm^-1]
  Rotational constants: A = 993270.67411  B = 490590.91235  C = 328392.87078 [MHz]
  Nuclear repulsion =    9.831948401040391

  Charge       = 0
  Multiplicity = 1
  Electrons    = 10
  Nalpha       = 5
  Nbeta        = 5

  ==> Algorithm <==

  SCF Algorithm Type is DF.
  DIIS enabled.
  MOM disabled.
  Fractional occupation disabled.
  Guess Type is SAD.
  Energy threshold   = 1.00e-08
  Density threshold  = 1.00e-08
  Integral threshold = 1.00e-12

  ==> Primary Basis <==

  Basis Set: CC-PVDZ
    Blend: CC-PVDZ
    Number of shells: 12
    Number of basis functions: 24
    Number of Cartesian functions: 25
    Spherical Harmonics?: true
    Max angular momentum: 2

   => Loading Basis Set <=

    Name: (CC-PVDZ AUX)
    Role: JKFIT
    Keyword: DF_BASIS_SCF
    atoms 1   entry O          line   221 file C:\Users\Mat\anaconda3\envs\psi4\Library\share\psi4\basis\cc-pvdz-jkfit.gbs 
    atoms 2-3 entry H          line    51 file C:\Users\Mat\anaconda3\envs\psi4\Library\share\psi4\basis\cc-pvdz-jkfit.gbs 

  ==> Integral Setup <==

  DFHelper Memory: AOs need 0.001 GiB; user supplied 2.095 GiB. 
  Using in-core AOs.

  ==> MemDFJK: Density-Fitted J/K Matrices <==

    J tasked:                   Yes
    K tasked:                   Yes
    wK tasked:                   No
    OpenMP threads:               1
    Memory [MiB]:              2145
    Algorithm:                 Core
    Schwarz Cutoff:           1E-12
    Mask sparsity (%):       0.0000
    Fitting Condition:        1E-10

   => Auxiliary Basis Set <=

  Basis Set: (CC-PVDZ AUX)
    Blend: CC-PVDZ-JKFIT
    Number of shells: 42
    Number of basis functions: 116
    Number of Cartesian functions: 131
    Spherical Harmonics?: true
    Max angular momentum: 3

  Minimum eigenvalue in the overlap matrix is 2.8877647357E-02.
  Reciprocal condition number of the overlap matrix is 8.9778962460E-03.
    Using symmetric orthogonalization.

  ==> Pre-Iterations <==

  SCF Guess: Superposition of Atomic Densities via on-the-fly atomic UHF (no occupation information).

   -------------------------
    Irrep   Nso     Nmo    
   -------------------------
     A1        11      11 
     A2         2       2 
     B1         4       4 
     B2         7       7 
   -------------------------
    Total      24      24
   -------------------------

  ==> Iterations <==

                           Total Energy        Delta E     RMS |[F,P]|

   @DF-RHF iter SAD:   -75.63702940201499   -7.56370e+01   0.00000e+00 
   @DF-RHF iter   1:   -75.89467661452115   -2.57647e-01   3.15606e-02 DIIS/ADIIS
   @DF-RHF iter   2:   -75.95176967341111   -5.70931e-02   1.81224e-02 DIIS/ADIIS
   @DF-RHF iter   3:   -75.97212132420675   -2.03517e-02   2.29436e-03 DIIS/ADIIS
   @DF-RHF iter   4:   -75.97261086562804   -4.89541e-04   3.54541e-04 DIIS/ADIIS
   @DF-RHF iter   5:   -75.97262783454374   -1.69689e-05   7.67588e-05 DIIS
   @DF-RHF iter   6:   -75.97262900206353   -1.16752e-06   1.20664e-05 DIIS
   @DF-RHF iter   7:   -75.97262903471226   -3.26487e-08   1.83999e-06 DIIS
   @DF-RHF iter   8:   -75.97262903559262   -8.80362e-10   4.16006e-07 DIIS
   @DF-RHF iter   9:   -75.97262903563876   -4.61426e-11   6.99097e-08 DIIS
   @DF-RHF iter  10:   -75.97262903563968   -9.23706e-13   4.76379e-09 DIIS
  Energy and wave function converged.


  ==> Post-Iterations <==

    Orbital Energies [Eh]
    ---------------------

    Doubly Occupied:                                                      

       1A1   -20.556283     2A1    -1.407231     3A1    -0.658140  
       1B2    -0.630293     1B1    -0.508437  

    Virtual:                                                              

       4A1     0.175066     2B2     0.270078     3B2     0.767437  
       5A1     0.886892     6A1     1.135497     2B1     1.193136  
       4B2     1.292207     7A1     1.424309     3B1     1.431745  
       1A2     1.682745     8A1     1.831534     5B2     2.197894  
       6B2     2.698461     9A1     2.699319     2A2     3.259336  
      10A1     3.263614     4B1     3.431271    11A1     3.926557  
       7B2     4.292904  

    Final Occupation by Irrep:
             A1    A2    B1    B2 
    DOCC [     3,    0,    1,    1 ]
    NA   [     3,    0,    1,    1 ]
    NB   [     3,    0,    1,    1 ]

  @DF-RHF Final Energy:   -75.97262903563968

   => Energetics <=

    Nuclear Repulsion Energy =              9.8319484010403908
    One-Electron Energy =                -124.0883859261869304
    Two-Electron Energy =                  38.2838084895068604
    Total Energy =                        -75.9726290356396703

Computation Completed


Properties will be evaluated at   0.000000,   0.000000,   0.000000 [a0]

Properties computed using the SCF density matrix


 Multipole Moments:

 ------------------------------------------------------------------------------------
     Multipole            Electronic (a.u.)      Nuclear  (a.u.)        Total (a.u.)
 ------------------------------------------------------------------------------------

 L = 1.  Multiply by 2.5417464519 to convert [e a0] to [Debye]
 Dipole X            :          0.0000000            0.0000000            0.0000000
 Dipole Y            :          0.0000000            0.0000000            0.0000000
 Dipole Z            :         -0.2829776            1.2627444            0.9797667
 Magnitude           :                                                    0.9797667

 ------------------------------------------------------------------------------------

*** tstop() called on G5 at Tue Apr 30 21:22:04 2024
Module time:
	user time   =        nan seconds =        nan minutes
	system time =        nan seconds =        nan minutes
	total time  =          0 seconds =       0.00 minutes
Total time:
	user time   =        nan seconds =        nan minutes
	system time =        nan seconds =        nan minutes
	total time  =          3 seconds =       0.05 minutes

*** tstart() called on G5
*** at Tue Apr 30 21:22:04 2024


         ------------------------------------------------------------
                                   SCF GRAD                          
                          Rob Parrish, Justin Turney,                
                       Andy Simmonett, and Alex Sokolov              
         ------------------------------------------------------------

  ==> Geometry <==

    Molecular point group: c2v
    Full point group: C2v

    Geometry (in Bohr), charge = 0, multiplicity = 1:

       Center              X                  Y                   Z               Mass       
    ------------   -----------------  -----------------  -----------------  -----------------
         O            0.000000000000     0.000000000000    -0.160435568642    15.994914619570
         H           -0.000000000000     0.949436867722     1.273114449583     1.007825032230
         H            0.000000000000    -0.949436867722     1.273114449583     1.007825032230

  Nuclear repulsion =    9.831948401040391

  ==> Basis Set <==

  Basis Set: CC-PVDZ
    Blend: CC-PVDZ
    Number of shells: 12
    Number of basis functions: 24
    Number of Cartesian functions: 25
    Spherical Harmonics?: true
    Max angular momentum: 2

  ==> DFJKGrad: Density-Fitted SCF Gradients <==

    Gradient:                    1
    J tasked:                  Yes
    K tasked:                  Yes
    wK tasked:                  No
    OpenMP threads:              1
    Integrals threads:           1
    Memory [MiB]:             -927
    Schwarz Cutoff:          1E-12
    Fitting Condition:       1E-10

   => Auxiliary Basis Set <=

  Basis Set: (CC-PVDZ AUX)
    Blend: CC-PVDZ-JKFIT
    Number of shells: 42
    Number of basis functions: 116
    Number of Cartesian functions: 131
    Spherical Harmonics?: true
    Max angular momentum: 3


  -Total Gradient:
     Atom            X                  Y                   Z
    ------   -----------------  -----------------  -----------------
       1        0.000000000000     0.000000000000     0.033488275013
       2        0.000000000000    -0.127269674808    -0.016744137506
       3       -0.000000000000     0.127269674808    -0.016744137506


*** tstop() called on G5 at Tue Apr 30 21:22:04 2024
Module time:
	user time   =        nan seconds =        nan minutes
	system time =        nan seconds =        nan minutes
	total time  =          0 seconds =       0.00 minutes
Total time:
	user time   =        nan seconds =        nan minutes
	system time =        nan seconds =        nan minutes
	total time  =          3 seconds =       0.05 minutes

    Psi4 stopped on: Tuesday, 30 April 2024 09:22PM
    Psi4 wall time for execution: 0:00:00.61


    -----------------------------------------------------------------------
          Psi4: An Open-Source Ab Initio Electronic Structure Package
                               Psi4 1.8.1 release

                         Git: Rev {} zzzzzzz 


    D. G. A. Smith, L. A. Burns, A. C. Simmonett, R. M. Parrish,
    M. C. Schieber, R. Galvelis, P. Kraus, H. Kruse, R. Di Remigio,
    A. Alenaizan, A. M. James, S. Lehtola, J. P. Misiewicz, M. Scheurer,
    R. A. Shaw, J. B. Schriber, Y. Xie, Z. L. Glick, D. A. Sirianni,
    J. S. O'Brien, J. M. Waldrop, A. Kumar, E. G. Hohenstein,
    B. P. Pritchard, B. R. Brooks, H. F. Schaefer III, A. Yu. Sokolov,
    K. Patkowski, A. E. DePrince III, U. Bozkaya, R. A. King,
    F. A. Evangelista, J. M. Turney, T. D. Crawford, C. D. Sherrill,
    J. Chem. Phys. 152(18) 184108 (2020). https://doi.org/10.1063/5.0006002

                            Additional Code Authors
    E. T. Seidl, C. L. Janssen, E. F. Valeev, M. L. Leininger,
    J. F. Gonthier, R. M. Richard, H. R. McAlexander, M. Saitow, X. Wang,
    P. Verma, M. H. Lechner, A. Jiang, S. Behnle, A. G. Heide,
    M. F. Herbst, and D. L. Poole

             Previous Authors, Complete List of Code Contributors,
                       and Citations for Specific Modules
    https://github.com/psi4/psi4/blob/master/codemeta.json
    https://github.com/psi4/psi4/graphs/contributors
    http://psicode.org/psi4manual/master/introduction.html#citing-psifour

    -----------------------------------------------------------------------


    Psi4 started on: Tuesday, 30 April 2024 09:21PM

    Process ID: 23604
    Host:       G5
    PSIDATADIR: C:\Users\Mat\anaconda3\envs\psi4\Library\share\psi4
    Memory:     2.8 GiB
    Threads:    1
    
  ==> Input QCSchema <==

--------------------------------------------------------------------------
{'driver': 'gradient',
 'extras': {'psiapi': True, 'wfn_qcvars_only': True},
 'id': None,
 'keywords': {'PARENT_SYMMETRY': 'C2v(Z)',
              'SCF__D_CONVERGENCE': 1e-08,
              'SCF__E_CONVERGENCE': 1e-08,
              'function_kwargs': {'write_orbitals': False}},
 'model': {'basis': 'cc-pvdz', 'method': 'scf'},
 'molecule': {'atom_labels': ['', '', ''],
              'atomic_numbers': [8, 1, 1],
              'extras': {},
              'fix_com': True,
              'fix_orientation': True,
              'fragment_charges': [0.0],
              'fragment_multiplicities': [1],
              'fragments': [[0, 1, 2]],
              'geometry': [0.0, 0.0, -0.16043556864172742, -2.928376746225877e-17, 0.9564804311789253,
                           1.2731144495828317, 2.928376746225877e-17, -0.9564804311789253, 1.2731144495828317],
              'mass_numbers': [16, 1, 1],
              'masses': [15.99491461957, 1.00782503223, 1.00782503223],
              'molecular_charge': 0.0,
              'molecular_multiplicity': 1,
              'name': 'H2O',
              'provenance': {'creator': 'QCElemental',
                             'routine': 'qcelemental.molparse.from_string',
                             'version': '0.26.0'},
              'real': [True, True, True],
              'schema_name': 'qcschema_molecule',
              'schema_version': 2,
              'symbols': ['O', 'H', 'H'],
              'validated': True},
 'protocols': {'stdout': True},
 'provenance': {'creator': 'QCElemental', 'routine': 'qcelemental.models.results', 'version': '0.26.0'},
 'schema_name': 'qcschema_input',
 'schema_version': 1}
--------------------------------------------------------------------------

Scratch directory: C:\Users\Mat\AppData\Local\Temp/
gradient() will perform analytic gradient computation.
   => Libint2 <=

    Primary   basis highest AM E, G, H:  5, 4, -
    Auxiliary basis highest AM E, G, H:  6, 5, -
    Onebody   basis highest AM E, G, H:  5, 4, 3
    Solid Harmonics ordering:            gaussian

*** tstart() called on G5
*** at Tue Apr 30 21:22:04 2024

   => Loading Basis Set <=

    Name: CC-PVDZ
    Role: ORBITAL
    Keyword: BASIS
    atoms 1   entry O          line   198 file C:\Users\Mat\anaconda3\envs\psi4\Library\share\psi4\basis\cc-pvdz.gbs 
    atoms 2-3 entry H          line    22 file C:\Users\Mat\anaconda3\envs\psi4\Library\share\psi4\basis\cc-pvdz.gbs 


         ---------------------------------------------------------
                                   SCF
               by Justin Turney, Rob Parrish, Andy Simmonett
                          and Daniel G. A. Smith
                              RHF Reference
                        1 Threads,  -1234 MiB Core
         ---------------------------------------------------------

  ==> Geometry <==

    Molecular point group: c2v
    Full point group: C2v

    Geometry (in Bohr), charge = 0, multiplicity = 1:

       Center              X                  Y                   Z               Mass       
    ------------   -----------------  -----------------  -----------------  -----------------
         O            0.000000000000     0.000000000000    -0.160435568642    15.994914619570
         H           -0.000000000000     0.956480431179     1.273114449583     1.007825032230
         H            0.000000000000    -0.956480431179     1.273114449583     1.007825032230

  Running in c2v symmetry.

  Rotational constants: A =     32.64577  B =     16.36435  C =     10.90034 [cm^-1]
  Rotational constants: A = 978695.56151  B = 490590.91235  C = 326783.88931 [MHz]
  Nuclear repulsion =    9.807015805825147

  Charge       = 0
  Multiplicity = 1
  Electrons    = 10
  Nalpha       = 5
  Nbeta        = 5

  ==> Algorithm <==

  SCF Algorithm Type is DF.
  DIIS enabled.
  MOM disabled.
  Fractional occupation disabled.
  Guess Type is SAD.
  Energy threshold   = 1.00e-08
  Density threshold  = 1.00e-08
  Integral threshold = 1.00e-12

  ==> Primary Basis <==

  Basis Set: CC-PVDZ
    Blend: CC-PVDZ
    Number of shells: 12
    Number of basis functions: 24
    Number of Cartesian functions: 25
    Spherical Harmonics?: true
    Max angular momentum: 2

   => Loading Basis Set <=

    Name: (CC-PVDZ AUX)
    Role: JKFIT
    Keyword: DF_BASIS_SCF
    atoms 1   entry O          line   221 file C:\Users\Mat\anaconda3\envs\psi4\Library\share\psi4\basis\cc-pvdz-jkfit.gbs 
    atoms 2-3 entry H          line    51 file C:\Users\Mat\anaconda3\envs\psi4\Library\share\psi4\basis\cc-pvdz-jkfit.gbs 

  ==> Integral Setup <==

  DFHelper Memory: AOs need 0.001 GiB; user supplied 2.095 GiB. 
  Using in-core AOs.

  ==> MemDFJK: Density-Fitted J/K Matrices <==

    J tasked:                   Yes
    K tasked:                   Yes
    wK tasked:                   No
    OpenMP threads:               1
    Memory [MiB]:              2145
    Algorithm:                 Core
    Schwarz Cutoff:           1E-12
    Mask sparsity (%):       0.0000
    Fitting Condition:        1E-10

   => Auxiliary Basis Set <=

  Basis Set: (CC-PVDZ AUX)
    Blend: CC-PVDZ-JKFIT
    Number of shells: 42
    Number of basis functions: 116
    Number of Cartesian functions: 131
    Spherical Harmonics?: true
    Max angular momentum: 3

  Minimum eigenvalue in the overlap matrix is 2.8970717616E-02.
  Reciprocal condition number of the overlap matrix is 9.0110693721E-03.
    Using symmetric orthogonalization.

  ==> Pre-Iterations <==

  SCF Guess: Superposition of Atomic Densities via on-the-fly atomic UHF (no occupation information).

   -------------------------
    Irrep   Nso     Nmo    
   -------------------------
     A1        11      11 
     A2         2       2 
     B1         4       4 
     B2         7       7 
   -------------------------
    Total      24      24
   -------------------------

  ==> Iterations <==

                           Total Energy        Delta E     RMS |[F,P]|

   @DF-RHF iter SAD:   -75.63380902363555   -7.56338e+01   0.00000e+00 
   @DF-RHF iter   1:   -75.89642304817198   -2.62614e-01   3.15367e-02 DIIS/ADIIS
   @DF-RHF iter   2:   -75.95346947997656   -5.70464e-02   1.81442e-02 DIIS/ADIIS
   @DF-RHF iter   3:   -75.97388306396522   -2.04136e-02   2.30118e-03 DIIS/ADIIS
   @DF-RHF iter   4:   -75.97437706795368   -4.94004e-04   3.57227e-04 DIIS/ADIIS
   @DF-RHF iter   5:   -75.97439434929700   -1.72813e-05   7.71742e-05 DIIS
   @DF-RHF iter   6:   -75.97439553197134   -1.18267e-06   1.21234e-05 DIIS
   @DF-RHF iter   7:   -75.97439556499685   -3.30255e-08   1.85722e-06 DIIS
   @DF-RHF iter   8:   -75.97439556589862   -9.01764e-10   4.21273e-07 DIIS
   @DF-RHF iter   9:   -75.97439556594614   -4.75211e-11   7.02077e-08 DIIS
   @DF-RHF iter  10:   -75.97439556594703   -8.95284e-13   4.80589e-09 DIIS
  Energy and wave function converged.


  ==> Post-Iterations <==

    Orbital Energies [Eh]
    ---------------------

    Doubly Occupied:                                                      

       1A1   -20.556562     2A1    -1.405104     3A1    -0.656758  
       1B2    -0.630584     1B1    -0.508152  

    Virtual:                                                              

       4A1     0.175053     2B2     0.269639     3B2     0.765586  
       5A1     0.887694     6A1     1.136980     2B1     1.193262  
       4B2     1.291758     7A1     1.418507     3B1     1.433671  
       1A2     1.679415     8A1     1.831195     5B2     2.193137  
       6B2     2.688726     9A1     2.693630     2A2     3.258502  
      10A1     3.265462     4B1     3.429417    11A1     3.924073  
       7B2     4.288921  

    Final Occupation by Irrep:
             A1    A2    B1    B2 
    DOCC [     3,    0,    1,    1 ]
    NA   [     3,    0,    1,    1 ]
    NB   [     3,    0,    1,    1 ]

  @DF-RHF Final Energy:   -75.97439556594703

   => Energetics <=

    Nuclear Repulsion Energy =              9.8070158058251469
    One-Electron Energy =                -124.0485033028826507
    Two-Electron Energy =                  38.2670919311104711
    Total Energy =                        -75.9743955659470345

Computation Completed


Properties will be evaluated at   0.000000,   0.000000,   0.000000 [a0]

Properties computed using the SCF density matrix


 Multipole Moments:

 ------------------------------------------------------------------------------------
     Multipole            Electronic (a.u.)      Nuclear  (a.u.)        Total (a.u.)
 ------------------------------------------------------------------------------------

 L = 1.  Multiply by 2.5417464519 to convert [e a0] to [Debye]
 Dipole X            :          0.0000000            0.0000000            0.0000000
 Dipole Y            :          0.0000000            0.0000000            0.0000000
 Dipole Z            :         -0.2837278            1.2627444            0.9790165
 Magnitude           :                                                    0.9790165

 ------------------------------------------------------------------------------------

*** tstop() called on G5 at Tue Apr 30 21:22:05 2024
Module time:
	user time   =        nan seconds =        nan minutes
	system time =        nan seconds =        nan minutes
	total time  =          1 seconds =       0.02 minutes
Total time:
	user time   =        nan seconds =        nan minutes
	system time =        nan seconds =        nan minutes
	total time  =          4 seconds =       0.07 minutes

*** tstart() called on G5
*** at Tue Apr 30 21:22:05 2024


         ------------------------------------------------------------
                                   SCF GRAD                          
                          Rob Parrish, Justin Turney,                
                       Andy Simmonett, and Alex Sokolov              
         ------------------------------------------------------------

  ==> Geometry <==

    Molecular point group: c2v
    Full point group: C2v

    Geometry (in Bohr), charge = 0, multiplicity = 1:

       Center              X                  Y                   Z               Mass       
    ------------   -----------------  -----------------  -----------------  -----------------
         O            0.000000000000     0.000000000000    -0.160435568642    15.994914619570
         H           -0.000000000000     0.956480431179     1.273114449583     1.007825032230
         H            0.000000000000    -0.956480431179     1.273114449583     1.007825032230

  Nuclear repulsion =    9.807015805825147

  ==> Basis Set <==

  Basis Set: CC-PVDZ
    Blend: CC-PVDZ
    Number of shells: 12
    Number of basis functions: 24
    Number of Cartesian functions: 25
    Spherical Harmonics?: true
    Max angular momentum: 2

  ==> DFJKGrad: Density-Fitted SCF Gradients <==

    Gradient:                    1
    J tasked:                  Yes
    K tasked:                  Yes
    wK tasked:                  No
    OpenMP threads:              1
    Integrals threads:           1
    Memory [MiB]:             -927
    Schwarz Cutoff:          1E-12
    Fitting Condition:       1E-10

   => Auxiliary Basis Set <=

  Basis Set: (CC-PVDZ AUX)
    Blend: CC-PVDZ-JKFIT
    Number of shells: 42
    Number of basis functions: 116
    Number of Cartesian functions: 131
    Spherical Harmonics?: true
    Max angular momentum: 3


  -Total Gradient:
     Atom            X                  Y                   Z
    ------   -----------------  -----------------  -----------------
       1       -0.000000000000     0.000000000000     0.028440880723
       2        0.000000000000    -0.123538473767    -0.014220440361
       3       -0.000000000000     0.123538473767    -0.014220440361


*** tstop() called on G5 at Tue Apr 30 21:22:05 2024
Module time:
	user time   =        nan seconds =        nan minutes
	system time =        nan seconds =        nan minutes
	total time  =          0 seconds =       0.00 minutes
Total time:
	user time   =        nan seconds =        nan minutes
	system time =        nan seconds =        nan minutes
	total time  =          4 seconds =       0.07 minutes

    Psi4 stopped on: Tuesday, 30 April 2024 09:22PM
    Psi4 wall time for execution: 0:00:00.55


    -----------------------------------------------------------------------
          Psi4: An Open-Source Ab Initio Electronic Structure Package
                               Psi4 1.8.1 release

                         Git: Rev {} zzzzzzz 


    D. G. A. Smith, L. A. Burns, A. C. Simmonett, R. M. Parrish,
    M. C. Schieber, R. Galvelis, P. Kraus, H. Kruse, R. Di Remigio,
    A. Alenaizan, A. M. James, S. Lehtola, J. P. Misiewicz, M. Scheurer,
    R. A. Shaw, J. B. Schriber, Y. Xie, Z. L. Glick, D. A. Sirianni,
    J. S. O'Brien, J. M. Waldrop, A. Kumar, E. G. Hohenstein,
    B. P. Pritchard, B. R. Brooks, H. F. Schaefer III, A. Yu. Sokolov,
    K. Patkowski, A. E. DePrince III, U. Bozkaya, R. A. King,
    F. A. Evangelista, J. M. Turney, T. D. Crawford, C. D. Sherrill,
    J. Chem. Phys. 152(18) 184108 (2020). https://doi.org/10.1063/5.0006002

                            Additional Code Authors
    E. T. Seidl, C. L. Janssen, E. F. Valeev, M. L. Leininger,
    J. F. Gonthier, R. M. Richard, H. R. McAlexander, M. Saitow, X. Wang,
    P. Verma, M. H. Lechner, A. Jiang, S. Behnle, A. G. Heide,
    M. F. Herbst, and D. L. Poole

             Previous Authors, Complete List of Code Contributors,
                       and Citations for Specific Modules
    https://github.com/psi4/psi4/blob/master/codemeta.json
    https://github.com/psi4/psi4/graphs/contributors
    http://psicode.org/psi4manual/master/introduction.html#citing-psifour

    -----------------------------------------------------------------------


    Psi4 started on: Tuesday, 30 April 2024 09:21PM

    Process ID: 23604
    Host:       G5
    PSIDATADIR: C:\Users\Mat\anaconda3\envs\psi4\Library\share\psi4
    Memory:     2.8 GiB
    Threads:    1
    
  ==> Input QCSchema <==

--------------------------------------------------------------------------
{'driver': 'gradient',
 'extras': {'psiapi': True, 'wfn_qcvars_only': True},
 'id': None,
 'keywords': {'PARENT_SYMMETRY': 'C2v(Z)',
              'SCF__D_CONVERGENCE': 1e-08,
              'SCF__E_CONVERGENCE': 1e-08,
              'function_kwargs': {'write_orbitals': False}},
 'model': {'basis': 'cc-pvdz', 'method': 'scf'},
 'molecule': {'atom_labels': ['', '', ''],
              'atomic_numbers': [8, 1, 1],
              'extras': {},
              'fix_com': True,
              'fix_orientation': True,
              'fragment_charges': [0.0],
              'fragment_multiplicities': [1],
              'fragments': [[0, 1, 2]],
              'geometry': [0.0, 0.0, -0.16043556864172742, -0.003521781728550249, 0.9529586494503753,
                           1.2731144495828317, 0.003521781728550249, -0.9529586494503753, 1.2731144495828317],
              'mass_numbers': [16, 1, 1],
              'masses': [15.99491461957, 1.00782503223, 1.00782503223],
              'molecular_charge': 0.0,
              'molecular_multiplicity': 1,
              'name': 'H2O',
              'provenance': {'creator': 'QCElemental',
                             'routine': 'qcelemental.molparse.from_string',
                             'version': '0.26.0'},
              'real': [True, True, True],
              'schema_name': 'qcschema_molecule',
              'schema_version': 2,
              'symbols': ['O', 'H', 'H'],
              'validated': True},
 'protocols': {'stdout': True},
 'provenance': {'creator': 'QCElemental', 'routine': 'qcelemental.models.results', 'version': '0.26.0'},
 'schema_name': 'qcschema_input',
 'schema_version': 1}
--------------------------------------------------------------------------

Scratch directory: C:\Users\Mat\AppData\Local\Temp/
gradient() will perform analytic gradient computation.
   => Libint2 <=

    Primary   basis highest AM E, G, H:  5, 4, -
    Auxiliary basis highest AM E, G, H:  6, 5, -
    Onebody   basis highest AM E, G, H:  5, 4, 3
    Solid Harmonics ordering:            gaussian

*** tstart() called on G5
*** at Tue Apr 30 21:22:05 2024

   => Loading Basis Set <=

    Name: CC-PVDZ
    Role: ORBITAL
    Keyword: BASIS
    atoms 1   entry O          line   198 file C:\Users\Mat\anaconda3\envs\psi4\Library\share\psi4\basis\cc-pvdz.gbs 
    atoms 2-3 entry H          line    22 file C:\Users\Mat\anaconda3\envs\psi4\Library\share\psi4\basis\cc-pvdz.gbs 


         ---------------------------------------------------------
                                   SCF
               by Justin Turney, Rob Parrish, Andy Simmonett
                          and Daniel G. A. Smith
                              RHF Reference
                        1 Threads,  -1234 MiB Core
         ---------------------------------------------------------

  ==> Geometry <==

    Molecular point group: c2
    Full point group: C2

    Geometry (in Bohr), charge = 0, multiplicity = 1:

       Center              X                  Y                   Z               Mass       
    ------------   -----------------  -----------------  -----------------  -----------------
         O            0.000000000000     0.000000000000    -0.160435568642    15.994914619570
         H           -0.003521781729     0.952958649450     1.273114449583     1.007825032230
         H            0.003521781729    -0.952958649450     1.273114449583     1.007825032230

  Running in c2 symmetry.

  Rotational constants: A =     32.88706  B =     16.36435  C =     10.92711 [cm^-1]
  Rotational constants: A = 985929.25434  B = 490590.91235  C = 327586.40438 [MHz]
  Nuclear repulsion =    9.819453469824143

  Charge       = 0
  Multiplicity = 1
  Electrons    = 10
  Nalpha       = 5
  Nbeta        = 5

  ==> Algorithm <==

  SCF Algorithm Type is DF.
  DIIS enabled.
  MOM disabled.
  Fractional occupation disabled.
  Guess Type is SAD.
  Energy threshold   = 1.00e-08
  Density threshold  = 1.00e-08
  Integral threshold = 1.00e-12

  ==> Primary Basis <==

  Basis Set: CC-PVDZ
    Blend: CC-PVDZ
    Number of shells: 12
    Number of basis functions: 24
    Number of Cartesian functions: 25
    Spherical Harmonics?: true
    Max angular momentum: 2

   => Loading Basis Set <=

    Name: (CC-PVDZ AUX)
    Role: JKFIT
    Keyword: DF_BASIS_SCF
    atoms 1   entry O          line   221 file C:\Users\Mat\anaconda3\envs\psi4\Library\share\psi4\basis\cc-pvdz-jkfit.gbs 
    atoms 2-3 entry H          line    51 file C:\Users\Mat\anaconda3\envs\psi4\Library\share\psi4\basis\cc-pvdz-jkfit.gbs 

  ==> Integral Setup <==

  DFHelper Memory: AOs need 0.001 GiB; user supplied 2.095 GiB. 
  Using in-core AOs.

[...]
              'symbols': ['O', 'H', 'H'],
              'validated': True},
 'protocols': {'stdout': True},
 'provenance': {'creator': 'QCElemental', 'routine': 'qcelemental.models.results', 'version': '0.26.0'},
 'schema_name': 'qcschema_input',
 'schema_version': 1}
--------------------------------------------------------------------------

Scratch directory: C:\Users\Mat\AppData\Local\Temp/
gradient() will perform analytic gradient computation.
   => Libint2 <=

    Primary   basis highest AM E, G, H:  5, 4, -
    Auxiliary basis highest AM E, G, H:  6, 5, -
    Onebody   basis highest AM E, G, H:  5, 4, 3
    Solid Harmonics ordering:            gaussian

*** tstart() called on G5
*** at Tue Apr 30 21:23:53 2024

   => Loading Basis Set <=

    Name: CC-PVDZ
    Role: ORBITAL
    Keyword: BASIS
    atoms 1   entry O          line   198 file C:\Users\Mat\anaconda3\envs\psi4\Library\share\psi4\basis\cc-pvdz.gbs 
    atoms 2-3 entry H          line    22 file C:\Users\Mat\anaconda3\envs\psi4\Library\share\psi4\basis\cc-pvdz.gbs 


         ---------------------------------------------------------
                                   SCF
               by Justin Turney, Rob Parrish, Andy Simmonett
                          and Daniel G. A. Smith
                              RHF Reference
                        1 Threads,  -1234 MiB Core
         ---------------------------------------------------------

  ==> Geometry <==

    Molecular point group: cs
    Full point group: Cs

    Geometry (in Bohr), charge = 0, multiplicity = 1:

       Center              X                  Y                   Z               Mass       
    ------------   -----------------  -----------------  -----------------  -----------------
         O            0.000000000000    -0.000418237476     0.160435568642    15.994914619570
         H            0.952958649450     0.003318866125    -1.273114449583     1.007825032230
         H           -0.952958649450     0.003318866125    -1.273114449583     1.007825032230

  Running in cs symmetry.

  Rotational constants: A =     32.88751  B =     16.36424  C =     10.92711 [cm^-1]
  Rotational constants: A = 985942.71984  B = 490587.57838  C = 327586.40438 [MHz]
  Nuclear repulsion =    9.819454601407516

  Charge       = 0
  Multiplicity = 1
  Electrons    = 10
  Nalpha       = 5
  Nbeta        = 5

  ==> Algorithm <==

  SCF Algorithm Type is DF.
  DIIS enabled.
  MOM disabled.
  Fractional occupation disabled.
  Guess Type is SAD.
  Energy threshold   = 1.00e-08
  Density threshold  = 1.00e-08
  Integral threshold = 1.00e-12

  ==> Primary Basis <==

  Basis Set: CC-PVDZ
    Blend: CC-PVDZ
    Number of shells: 12
    Number of basis functions: 24
    Number of Cartesian functions: 25
    Spherical Harmonics?: true
    Max angular momentum: 2

   => Loading Basis Set <=

    Name: (CC-PVDZ AUX)
    Role: JKFIT
    Keyword: DF_BASIS_SCF
    atoms 1   entry O          line   221 file C:\Users\Mat\anaconda3\envs\psi4\Library\share\psi4\basis\cc-pvdz-jkfit.gbs 
    atoms 2-3 entry H          line    51 file C:\Users\Mat\anaconda3\envs\psi4\Library\share\psi4\basis\cc-pvdz-jkfit.gbs 

  ==> Integral Setup <==

  DFHelper Memory: AOs need 0.001 GiB; user supplied 2.095 GiB. 
  Using in-core AOs.

  ==> MemDFJK: Density-Fitted J/K Matrices <==

    J tasked:                   Yes
    K tasked:                   Yes
    wK tasked:                   No
    OpenMP threads:               1
    Memory [MiB]:              2145
    Algorithm:                 Core
    Schwarz Cutoff:           1E-12
    Mask sparsity (%):       0.0000
    Fitting Condition:        1E-10

   => Auxiliary Basis Set <=

  Basis Set: (CC-PVDZ AUX)
    Blend: CC-PVDZ-JKFIT
    Number of shells: 42
    Number of basis functions: 116
    Number of Cartesian functions: 131
    Spherical Harmonics?: true
    Max angular momentum: 3

  Minimum eigenvalue in the overlap matrix is 2.8924164789E-02.
  Reciprocal condition number of the overlap matrix is 8.9944691772E-03.
    Using symmetric orthogonalization.

  ==> Pre-Iterations <==

  SCF Guess: Superposition of Atomic Densities via on-the-fly atomic UHF (no occupation information).

   -------------------------
    Irrep   Nso     Nmo    
   -------------------------
     A'        15      15 
     A"         9       9 
   -------------------------
    Total      24      24
   -------------------------

  ==> Iterations <==

                           Total Energy        Delta E     RMS |[F,P]|

   @DF-RHF iter SAD:   -75.63542222344951   -7.56354e+01   0.00000e+00 
   @DF-RHF iter   1:   -75.89555667398021   -2.60134e-01   2.48597e-02 DIIS/ADIIS
   @DF-RHF iter   2:   -75.95262628389543   -5.70696e-02   1.42887e-02 DIIS/ADIIS
   @DF-RHF iter   3:   -75.97309351190400   -2.04672e-02   1.57911e-03 DIIS/ADIIS
   @DF-RHF iter   4:   -75.97350083631885   -4.07324e-04   2.76722e-04 DIIS/ADIIS
   @DF-RHF iter   5:   -75.97351781298441   -1.69767e-05   6.05429e-05 DIIS
   @DF-RHF iter   6:   -75.97351898793110   -1.17495e-06   9.54158e-06 DIIS
   @DF-RHF iter   7:   -75.97351902081668   -3.28856e-08   1.46336e-06 DIIS
   @DF-RHF iter   8:   -75.97351902171502   -8.98339e-10   3.30383e-07 DIIS
   @DF-RHF iter   9:   -75.97351902176194   -4.69242e-11   5.55816e-08 DIIS
   @DF-RHF iter  10:   -75.97351902176294   -9.94760e-13   3.77612e-09 DIIS
  Energy and wave function converged.


  ==> Post-Iterations <==

    Orbital Energies [Eh]
    ---------------------

    Doubly Occupied:                                                      

       1Ap   -20.556423     2Ap    -1.406164     3Ap    -0.657448  
       1App   -0.630439     4Ap    -0.508294  

    Virtual:                                                              

       5Ap     0.175060     2App    0.269859     3App    0.766507  
       6Ap     0.887295     7Ap     1.136237     8Ap     1.193201  
       4App    1.291982     9Ap     1.421406    10Ap     1.432702  
       5App    1.681079    11Ap     1.831358     6App    2.195513  
       7App    2.693566    12Ap     2.696478     8App    3.258917  
      13Ap     3.264532    14Ap     3.430346    15Ap     3.925315  
       9App    4.290902  

    Final Occupation by Irrep:
             Ap   App 
    DOCC [     4,    1 ]
    NA   [     4,    1 ]
    NB   [     4,    1 ]

  @DF-RHF Final Energy:   -75.97351902176294

   => Energetics <=

    Nuclear Repulsion Energy =              9.8194546014075161
    One-Electron Energy =                -124.0684108629492926
    Two-Electron Energy =                  38.2754372397788387
    Total Energy =                        -75.9735190217629395

Computation Completed


Properties will be evaluated at   0.000000,   0.000000,   0.000000 [a0]

Properties computed using the SCF density matrix


 Multipole Moments:

 ------------------------------------------------------------------------------------
     Multipole            Electronic (a.u.)      Nuclear  (a.u.)        Total (a.u.)
 ------------------------------------------------------------------------------------

 L = 1.  Multiply by 2.5417464519 to convert [e a0] to [Debye]
 Dipole X            :          0.0000000            0.0000000            0.0000000
 Dipole Y            :         -0.0007387            0.0032918            0.0025532
 Dipole Z            :          0.2833544           -1.2627444           -0.9793900
 Magnitude           :                                                    0.9793933

 ------------------------------------------------------------------------------------

*** tstop() called on G5 at Tue Apr 30 21:23:54 2024
Module time:
	user time   =        nan seconds =        nan minutes
	system time =        nan seconds =        nan minutes
	total time  =          1 seconds =       0.02 minutes
Total time:
	user time   =        nan seconds =        nan minutes
	system time =        nan seconds =        nan minutes
	total time  =        113 seconds =       1.88 minutes

*** tstart() called on G5
*** at Tue Apr 30 21:23:54 2024


         ------------------------------------------------------------
                                   SCF GRAD                          
                          Rob Parrish, Justin Turney,                
                       Andy Simmonett, and Alex Sokolov              
         ------------------------------------------------------------

  ==> Geometry <==

    Molecular point group: cs
    Full point group: Cs

    Geometry (in Bohr), charge = 0, multiplicity = 1:

       Center              X                  Y                   Z               Mass       
    ------------   -----------------  -----------------  -----------------  -----------------
         O            0.000000000000    -0.000418237476     0.160435568642    15.994914619570
         H            0.952958649450     0.003318866125    -1.273114449583     1.007825032230
         H           -0.952958649450     0.003318866125    -1.273114449583     1.007825032230

  Nuclear repulsion =    9.819454601407516

  ==> Basis Set <==

  Basis Set: CC-PVDZ
    Blend: CC-PVDZ
    Number of shells: 12
    Number of basis functions: 24
    Number of Cartesian functions: 25
    Spherical Harmonics?: true
    Max angular momentum: 2

  ==> DFJKGrad: Density-Fitted SCF Gradients <==

    Gradient:                    1
    J tasked:                  Yes
    K tasked:                  Yes
    wK tasked:                  No
    OpenMP threads:              1
    Integrals threads:           1
    Memory [MiB]:             -927
    Schwarz Cutoff:          1E-12
    Fitting Condition:       1E-10

   => Auxiliary Basis Set <=

  Basis Set: (CC-PVDZ AUX)
    Blend: CC-PVDZ-JKFIT
    Number of shells: 42
    Number of basis functions: 116
    Number of Cartesian functions: 131
    Spherical Harmonics?: true
    Max angular momentum: 3


  -Total Gradient:
     Atom            X                  Y                   Z
    ------   -----------------  -----------------  -----------------
       1        0.000000000000     0.000080682589    -0.030949777851
       2       -0.125396705854    -0.000040341294     0.015474888926
       3        0.125396705854    -0.000040341294     0.015474888926


*** tstop() called on G5 at Tue Apr 30 21:23:54 2024
Module time:
	user time   =        nan seconds =        nan minutes
	system time =        nan seconds =        nan minutes
	total time  =          0 seconds =       0.00 minutes
Total time:
	user time   =        nan seconds =        nan minutes
	system time =        nan seconds =        nan minutes
	total time  =        113 seconds =       1.88 minutes

    Psi4 stopped on: Tuesday, 30 April 2024 09:23PM
    Psi4 wall time for execution: 0:00:00.60


  //>>>>>>>>>>>>>>>>>>>>>>>>>>>>>>>>>>>//
  //      FiniteDifference Results     //
  //<<<<<<<<<<<<<<<<<<<<<<<<<<<<<<<<<<<//

  Computing second-derivative from gradients using projected, 
  symmetry-adapted, cartesian coordinates.

  9 gradients passed in, including the reference geometry.
  Generating complete list of displacements from unique ones.

    Operation 3 takes plus displacements of irrep A2 to minus ones.
    Operation 2 takes plus displacements of irrep B1 to minus ones.
    Operation 2 takes plus displacements of irrep B2 to minus ones.

-------------------------------------------------------------


  ==> Harmonic Vibrational Analysis <==

  non-mass-weighted Hessian:       Symmetric? True   Hermitian? True   Lin Dep Dim?  3 (0)
  projection of translations (True) and rotations (False) removed 3 degrees of freedom (6)
  total projector:                 Symmetric? True   Hermitian? True   Lin Dep Dim?  3 (3)
  mass-weighted Hessian:           Symmetric? True   Hermitian? True   Lin Dep Dim?  3 (0)
  pre-proj  low-frequency mode:    0.0000i [cm^-1]
  pre-proj  low-frequency mode:    0.0000i [cm^-1]
  pre-proj  low-frequency mode:    0.0000i [cm^-1]
  pre-proj  low-frequency mode:    0.0000i [cm^-1]
  pre-proj  low-frequency mode:    0.0000i [cm^-1]
  pre-proj  low-frequency mode:    0.0000  [cm^-1]
  pre-proj  all modes:['1857.4337i' '1207.3986i' '564.5361i' '0.0000i' '0.0000i' '0.0000'
 '1959.7293' '4552.8027' '4876.3625']
  projected mass-weighted Hessian: Symmetric? True   Hermitian? True   Lin Dep Dim?  3 (3)
  post-proj low-frequency mode: 1857.4337i [cm^-1] (V)
  post-proj low-frequency mode: 1207.3986i [cm^-1] (V)
  post-proj low-frequency mode:  564.5361i [cm^-1] (V)
  post-proj low-frequency mode:    0.0001i [cm^-1] (TR)
  post-proj low-frequency mode:    0.0000i [cm^-1] (TR)
  post-proj low-frequency mode:    0.0000  [cm^-1] (TR)
  post-proj  all modes:['1857.4337i' '1207.3986i' '564.5361i' '0.0001i' '0.0000i' '0.0000'
 '1959.7293' '4552.8027' '4876.3625']

  Note that "Vibration"s include 3 un-projected rotation-like modes.
  Vibration                       1                   2                   3           
  Freq [cm^-1]                1857.4337i          1207.3986i          564.5361i       
  Irrep                           A2                  B1                  B2          
  Reduced mass [u]              1.0078              1.0759              1.1259        
  Force const [mDyne/A]        -2.0486             -0.9241             -0.2114        
  Turning point v=0 [a0]        0.0000              0.0000              0.0000        
  RMS dev v=0 [a0 u^1/2]        0.0000              0.0000              0.0000        
  IR activ [km/mol]             0.0000             167.4277            254.1951       
  Char temp [K]                 0.0000              0.0000              0.0000        
  ----------------------------------------------------------------------------------
      1   O                0.00  0.00 -0.00   -0.07 -0.00 -0.00   -0.00 -0.09 -0.00   
      2   H                0.00  0.71  0.00    0.53  0.00  0.46   -0.00  0.70 -0.00   
      3   H               -0.00 -0.71  0.00    0.53  0.00 -0.46   -0.00  0.70  0.00   

  Vibration                       7                   8                   9           
  Freq [cm^-1]                1959.7293           4552.8027           4876.3625       
  Irrep                           A1                  B1                  A1          
  Reduced mass [u]              1.0641              1.0515              1.0631        
  Force const [mDyne/A]         2.4077             12.8419             14.8945        
  Turning point v=0 [a0]        0.2403              0.1586              0.1524        
  RMS dev v=0 [a0 u^1/2]        0.1753              0.1150              0.1111        
  IR activ [km/mol]            60.2758              3.1186             19.3818        
  Char temp [K]               2819.6142           6550.4694           7015.9999       
  ----------------------------------------------------------------------------------
      1   O                0.00 -0.00 -0.06    0.05  0.00 -0.00    0.00  0.00  0.06   
      2   H                0.51 -0.00  0.49   -0.43  0.00  0.56    0.52  0.00 -0.48   
      3   H               -0.51 -0.00  0.49   -0.43  0.00 -0.56   -0.52  0.00 -0.48   

  ==> Thermochemistry Components <==

  Entropy, S
    Electronic S            0.000 [cal/(mol K)]        0.000 [J/(mol K)]       0.00000000 [mEh/K] (multiplicity = 1)
    Translational S        34.608 [cal/(mol K)]      144.801 [J/(mol K)]       0.05515177 [mEh/K] (mol. weight = 18.0106 [u], P = 101325.00 [Pa])
    Rotational S           10.016 [cal/(mol K)]       41.907 [J/(mol K)]       0.01596135 [mEh/K] (symmetry no. = 2)
    Vibrational S           0.002 [cal/(mol K)]        0.007 [J/(mol K)]       0.00000259 [mEh/K]
  Total S                  44.626 [cal/(mol K)]      186.714 [J/(mol K)]       0.07111571 [mEh/K]
  Correction S              0.000 [cal/(mol K)]        0.000 [J/(mol K)]       0.00000000 [mEh/K]

  Constant volume heat capacity, Cv
    Electronic Cv           0.000 [cal/(mol K)]        0.000 [J/(mol K)]       0.00000000 [mEh/K]
    Translational Cv        2.981 [cal/(mol K)]       12.472 [J/(mol K)]       0.00475022 [mEh/K]
    Rotational Cv           2.981 [cal/(mol K)]       12.472 [J/(mol K)]       0.00475022 [mEh/K]
    Vibrational Cv          0.014 [cal/(mol K)]        0.058 [J/(mol K)]       0.00002213 [mEh/K]
  Total Cv                  5.976 [cal/(mol K)]       25.001 [J/(mol K)]       0.00952257 [mEh/K]
  Correction Cv             0.000 [cal/(mol K)]        0.000 [J/(mol K)]       0.00000000 [mEh/K]

  Constant pressure heat capacity, Cp
    Electronic Cp           0.000 [cal/(mol K)]        0.000 [J/(mol K)]       0.00000000 [mEh/K]
    Translational Cp        4.968 [cal/(mol K)]       20.786 [J/(mol K)]       0.00791703 [mEh/K]
    Rotational Cp           2.981 [cal/(mol K)]       12.472 [J/(mol K)]       0.00475022 [mEh/K]
    Vibrational Cp          0.014 [cal/(mol K)]        0.058 [J/(mol K)]       0.00002213 [mEh/K]
  Total Cp                  7.963 [cal/(mol K)]       33.316 [J/(mol K)]       0.01268938 [mEh/K]
  Correction Cp             0.000 [cal/(mol K)]        0.000 [J/(mol K)]       0.00000000 [mEh/K]

  ==> Thermochemistry Energy Analysis <==

  Raw electronic energy, E0
  Total E0, Electronic energy at well bottom at 0 [K]                  -75.97351887 [Eh]

  Zero-point energy, ZPE_vib = Sum_i nu_i / 2
    Electronic ZPE          0.000 [kcal/mol]        0.000 [kJ/mol]       0.00000000 [Eh]
    Translational ZPE       0.000 [kcal/mol]        0.000 [kJ/mol]       0.00000000 [Eh]
    Rotational ZPE          0.000 [kcal/mol]        0.000 [kJ/mol]       0.00000000 [Eh]
    Vibrational ZPE        16.281 [kcal/mol]       68.121 [kJ/mol]       0.02594581 [Eh]        5694.447 [cm^-1]
  Correction ZPE           16.281 [kcal/mol]       68.121 [kJ/mol]       0.02594581 [Eh]        5694.447 [cm^-1]
  Total ZPE, Electronic energy at 0 [K]                                -75.94757306 [Eh]

  Thermal Energy, E (includes ZPE)
    Electronic E            0.000 [kcal/mol]        0.000 [kJ/mol]       0.00000000 [Eh]
    Translational E         0.889 [kcal/mol]        3.718 [kJ/mol]       0.00141628 [Eh]
    Rotational E            0.889 [kcal/mol]        3.718 [kJ/mol]       0.00141628 [Eh]
    Vibrational E          16.282 [kcal/mol]       68.123 [kJ/mol]       0.02594651 [Eh]
  Correction E             18.059 [kcal/mol]       75.559 [kJ/mol]       0.02877906 [Eh]
  Total E, Electronic energy at  298.15 [K]                            -75.94473981 [Eh]

  Enthalpy, H_trans = E_trans + k_B * T
    Electronic H            0.000 [kcal/mol]        0.000 [kJ/mol]       0.00000000 [Eh]
    Translational H         1.481 [kcal/mol]        6.197 [kJ/mol]       0.00236046 [Eh]
    Rotational H            0.889 [kcal/mol]        3.718 [kJ/mol]       0.00141628 [Eh]
    Vibrational H          16.282 [kcal/mol]       68.123 [kJ/mol]       0.02594651 [Eh]
  Correction H             18.652 [kcal/mol]       78.038 [kJ/mol]       0.02972325 [Eh]
  Total H, Enthalpy at  298.15 [K]                                     -75.94379562 [Eh]

  Gibbs free energy, G = H - T * S
    Electronic G            0.000 [kcal/mol]        0.000 [kJ/mol]       0.00000000 [Eh]
    Translational G        -8.837 [kcal/mol]      -36.975 [kJ/mol]      -0.01408304 [Eh]
    Rotational G           -2.098 [kcal/mol]       -8.776 [kJ/mol]      -0.00334260 [Eh]
    Vibrational G          16.281 [kcal/mol]       68.121 [kJ/mol]       0.02594574 [Eh]
  Correction G              5.346 [kcal/mol]       22.370 [kJ/mol]       0.00852010 [Eh]
  Total G, Free enthalpy at  298.15 [K]                                -75.96499877 [Eh]
