
Host: G5

Timers On : Sun Mar 12 00:00:01 2023
Timers Off: Sun Mar 12 00:00:06 2023

Wall Time:        4.56 seconds

                                                       Time (seconds)
Module                                       User      System        Wall        Calls
DFH: sparsity prep                  :      0.000u      0.000s      0.095w      7 calls
Libint2ERI::Libint2ERI              :      0.000u      0.000s      0.107w     43 calls
DFH: initialize()                   :      0.000u      0.000s      0.204w      7 calls
DFH: AO Construction                :      0.000u      0.000s      0.023w      7 calls
DFH: AO-Met. Contraction            :      0.000u      0.000s      0.004w      7 calls
HF: Form core H                     :      0.000u      0.000s      0.028w      6 calls
HF: Form S/X                        :      0.000u      0.000s      0.002w      6 calls
HF: Guess                           :      0.000u      0.000s      0.197w      6 calls
SAD Guess                           :      0.000u      0.000s      0.191w      4 calls
HF: Form G                          :      0.000u      0.000s      0.014w     60 calls
JK: D                               :      0.000u      0.000s      0.001w     73 calls
JK: USO2AO                          :      0.000u      0.000s      0.002w     73 calls
JK: JK                              :      0.000u      0.000s      0.025w     73 calls
DFH: compute_JK()                   :      0.000u      0.000s      0.025w     73 calls
DFH: Grabbing AOs                   :      0.000u      0.000s      0.000w     73 calls
DFH: compute_J                      :      0.000u      0.000s      0.008w     73 calls
DFH: compute_K                      :      0.000u      0.000s      0.016w     73 calls
JK: AO2USO                          :      0.000u      0.000s      0.001w     73 calls
HF: Form F                          :      0.000u      0.000s      0.001w     60 calls
HF: Form D                          :      0.000u      0.000s      0.000w     60 calls
HF: DIIS                            :      0.000u      0.000s      0.110w     56 calls
DIISManager::add_entry              :      0.000u      0.000s      0.041w     54 calls
DIISManager::extrapolate            :      0.000u      0.000s      0.007w     54 calls
bMatrix setup                       :      0.000u      0.000s      0.003w     54 calls
bMatrix pseudoinverse               :      0.000u      0.000s      0.002w     54 calls
New vector                          :      0.000u      0.000s      0.002w     54 calls
HF: Form C                          :      0.000u      0.000s      0.026w     56 calls
Grad: V T Perturb                   :      0.000u      0.000s      0.138w      4 calls
Grad: S                             :      0.000u      0.000s      0.000w      4 calls
Grad: JK                            :      0.000u      0.000s      0.203w      4 calls
JKGrad: Amn                         :      0.000u      0.000s      0.058w      4 calls
JKGrad: Awmn                        :      0.000u      0.000s      0.000w      4 calls
JKGrad: AB                          :      0.000u      0.000s      0.024w      4 calls
JKGrad: UV                          :      0.000u      0.000s      0.001w      4 calls
JKGrad: ABx                         :      0.000u      0.000s      0.012w      4 calls
JKGrad: Amnx                        :      0.000u      0.000s      0.065w      4 calls
Grad: XC                            :      0.000u      0.000s      0.000w      4 calls
Hess: XC                            :      0.000u      0.000s      0.000w      1 calls
Hess: V                             :      0.000u      0.000s      0.348w      1 calls
Hess: T                             :      0.000u      0.000s      0.000w      1 calls
Hess: S                             :      0.000u      0.000s      0.000w      1 calls
Hess: JK                            :      0.000u      0.000s      0.187w      1 calls

--------------------------------------------------------------------------------------
DFH: sparsity prep                  :      0.000u      0.000s      0.095w      7 calls
| Libint2ERI::Libint2ERI            :      0.000u      0.000s      0.049w      7 calls
DFH: initialize()                   :      0.000u      0.000s      0.204w      7 calls
| Libint2ERI::Libint2ERI            :      0.000u      0.000s      0.025w     14 calls
| DFH: AO Construction              :      0.000u      0.000s      0.023w      7 calls
| DFH: AO-Met. Contraction          :      0.000u      0.000s      0.004w      7 calls
HF: Form core H                     :      0.000u      0.000s      0.028w      6 calls
HF: Form S/X                        :      0.000u      0.000s      0.002w      6 calls
HF: Guess                           :      0.000u      0.000s      0.197w      6 calls
| SAD Guess                         :      0.000u      0.000s      0.191w      4 calls
HF: Form G                          :      0.000u      0.000s      0.014w     60 calls
| JK: D                             :      0.000u      0.000s      0.001w     60 calls
| JK: USO2AO                        :      0.000u      0.000s      0.002w     60 calls
| JK: JK                            :      0.000u      0.000s      0.010w     60 calls
| | DFH: compute_JK()               :      0.000u      0.000s      0.010w     60 calls
| | | DFH: Grabbing AOs             :      0.000u      0.000s      0.000w     60 calls
| | | DFH: compute_J                :      0.000u      0.000s      0.004w     60 calls
| | | DFH: compute_K                :      0.000u      0.000s      0.005w     60 calls
| JK: AO2USO                        :      0.000u      0.000s      0.001w     60 calls
HF: Form F                          :      0.000u      0.000s      0.001w     60 calls
HF: Form D                          :      0.000u      0.000s      0.000w     60 calls
HF: DIIS                            :      0.000u      0.000s      0.110w     56 calls
| DIISManager::add_entry            :      0.000u      0.000s      0.041w     54 calls
| DIISManager::extrapolate          :      0.000u      0.000s      0.007w     54 calls
| | bMatrix setup                   :      0.000u      0.000s      0.003w     54 calls
| | bMatrix pseudoinverse           :      0.000u      0.000s      0.002w     54 calls
| | New vector                      :      0.000u      0.000s      0.002w     54 calls
HF: Form C                          :      0.000u      0.000s      0.026w     56 calls
Grad: V T Perturb                   :      0.000u      0.000s      0.138w      4 calls
Grad: S                             :      0.000u      0.000s      0.000w      4 calls
Grad: JK                            :      0.000u      0.000s      0.203w      4 calls
| JKGrad: Amn                       :      0.000u      0.000s      0.058w      4 calls
| | Libint2ERI::Libint2ERI          :      0.000u      0.000s      0.013w      4 calls
| JKGrad: Awmn                      :      0.000u      0.000s      0.000w      4 calls
| JKGrad: AB                        :      0.000u      0.000s      0.024w      4 calls
| | Libint2ERI::Libint2ERI          :      0.000u      0.000s      0.000w      4 calls
| JKGrad: UV                        :      0.000u      0.000s      0.001w      4 calls
| JKGrad: ABx                       :      0.000u      0.000s      0.012w      4 calls
| | Libint2ERI::Libint2ERI          :      0.000u      0.000s      0.000w      4 calls
| JKGrad: Amnx                      :      0.000u      0.000s      0.065w      4 calls
| | Libint2ERI::Libint2ERI          :      0.000u      0.000s      0.012w      4 calls
Grad: XC                            :      0.000u      0.000s      0.000w      4 calls
Hess: XC                            :      0.000u      0.000s      0.000w      1 calls
Hess: V                             :      0.000u      0.000s      0.348w      1 calls
Hess: T                             :      0.000u      0.000s      0.000w      1 calls
Hess: S                             :      0.000u      0.000s      0.000w      1 calls
Hess: JK                            :      0.000u      0.000s      0.187w      1 calls
| Libint2ERI::Libint2ERI            :      0.000u      0.000s      0.004w      3 calls
Libint2ERI::Libint2ERI              :      0.000u      0.000s      0.004w      3 calls
JK: D                               :      0.000u      0.000s      0.000w     13 calls
JK: USO2AO                          :      0.000u      0.000s      0.001w     13 calls
JK: JK                              :      0.000u      0.000s      0.015w     13 calls
| DFH: compute_JK()                 :      0.000u      0.000s      0.015w     13 calls
| | DFH: Grabbing AOs               :      0.000u      0.000s      0.000w     13 calls
| | DFH: compute_J                  :      0.000u      0.000s      0.003w     13 calls
| | DFH: compute_K                  :      0.000u      0.000s      0.011w     13 calls
JK: AO2USO                          :      0.000u      0.000s      0.000w     13 calls

**************************************************************************************

Host: G5

Timers On : Mon May  1 21:50:56 2023
Timers Off: Mon May  1 21:51:02 2023

Wall Time:        5.91 seconds

                                                       Time (seconds)
Module                                       User      System        Wall        Calls
SAPT: Dimer SCF                     :      0.000u      0.000s      1.207w      1 calls
Libint2ERI::Libint2ERI              :      0.000u      0.000s      0.178w     11 calls
JK: (A|mn)                          :      0.000u      0.000s      0.094w      1 calls
JK: (A|Q)^-1/2                      :      0.000u      0.000s      0.063w      1 calls
JK: (Q|mn)                          :      0.000u      0.000s      0.045w      1 calls
HF: Form core H                     :      0.000u      0.000s      0.063w      3 calls
HF: Form S/X                        :      0.000u      0.000s      0.004w      3 calls
HF: Guess                           :      0.000u      0.000s      0.133w      3 calls
SAD Guess                           :      0.000u      0.000s      0.129w      3 calls
HF: Form G                          :      0.000u      0.000s      0.874w     31 calls
JK: D                               :      0.000u      0.000s      0.001w     31 calls
JK: USO2AO                          :      0.000u      0.000s      0.000w     31 calls
JK: JK                              :      0.000u      0.000s      0.871w     31 calls
JK: J                               :      0.000u      0.000s      0.066w     31 calls
JK: J1                              :      0.000u      0.000s      0.032w     31 calls
JK: J2                              :      0.000u      0.000s      0.032w     31 calls
JK: K                               :      0.000u      0.000s      0.774w     31 calls
JK: K1                              :      0.000u      0.000s      0.692w     31 calls
JK: K2                              :      0.000u      0.000s      0.081w     31 calls
JK: AO2USO                          :      0.000u      0.000s      0.000w     31 calls
HF: Form F                          :      0.000u      0.000s      0.001w     31 calls
HF: Form D                          :      0.000u      0.000s      0.000w     31 calls
HF: DIIS                            :      0.000u      0.000s      0.061w     28 calls
DIISManager::add_entry              :      0.000u      0.000s      0.011w     28 calls
DIISManager::extrapolate            :      0.000u      0.000s      0.011w     28 calls
bMatrix setup                       :      0.000u      0.000s      0.006w     28 calls
bMatrix pseudoinverse               :      0.000u      0.000s      0.001w     28 calls
New vector                          :      0.000u      0.000s      0.004w     28 calls
HF: Form C                          :      0.000u      0.000s      0.048w     28 calls
SAPT: Monomer A SCF                 :      0.000u      0.000s      0.858w      1 calls
SAPT: Monomer B SCF                 :      0.000u      0.000s      0.956w      1 calls
SAPT0: DF Integrals                 :      0.000u      0.000s      0.415w      1 calls
SAPT0: W Integrals                  :      0.000u      0.000s      0.003w      1 calls
SAPT0: Elst10                       :      0.000u      0.000s      0.000w      1 calls
SAPT0: Exch10                       :      0.000u      0.000s      0.008w      1 calls
SAPT0: Exch10 S^2                   :      0.000u      0.000s      0.001w      1 calls
SAPT0: Ind20                        :      0.000u      0.000s      0.269w      1 calls
SAPT0: Exch-Ind20                   :      0.000u      0.000s      0.054w      1 calls
SAPT0: Exch-Disp20 N^5              :      0.000u      0.000s      0.109w      1 calls
SAPT0: Exch-Disp20 N^4              :      0.000u      0.000s      0.242w      1 calls

--------------------------------------------------------------------------------------
SAPT: Dimer SCF                     :      0.000u      0.000s      1.207w      1 calls
| Libint2ERI::Libint2ERI            :      0.000u      0.000s      0.062w      2 calls
| JK: (A|mn)                        :      0.000u      0.000s      0.094w      1 calls
| JK: (A|Q)^-1/2                    :      0.000u      0.000s      0.063w      1 calls
| | Libint2ERI::Libint2ERI          :      0.000u      0.000s      0.000w      1 calls
| JK: (Q|mn)                        :      0.000u      0.000s      0.045w      1 calls
| HF: Form core H                   :      0.000u      0.000s      0.022w      1 calls
| HF: Form S/X                      :      0.000u      0.000s      0.001w      1 calls
| HF: Guess                         :      0.000u      0.000s      0.050w      1 calls
| | SAD Guess                       :      0.000u      0.000s      0.048w      1 calls
| HF: Form G                        :      0.000u      0.000s      0.319w     11 calls
| | JK: D                           :      0.000u      0.000s      0.000w     11 calls
| | JK: USO2AO                      :      0.000u      0.000s      0.000w     11 calls
| | JK: JK                          :      0.000u      0.000s      0.318w     11 calls
| | | JK: J                         :      0.000u      0.000s      0.024w     11 calls
| | | | JK: J1                      :      0.000u      0.000s      0.012w     11 calls
| | | | JK: J2                      :      0.000u      0.000s      0.012w     11 calls
| | | JK: K                         :      0.000u      0.000s      0.279w     11 calls
| | | | JK: K1                      :      0.000u      0.000s      0.236w     11 calls
| | | | JK: K2                      :      0.000u      0.000s      0.042w     11 calls
| | JK: AO2USO                      :      0.000u      0.000s      0.000w     11 calls
| HF: Form F                        :      0.000u      0.000s      0.000w     11 calls
| HF: Form D                        :      0.000u      0.000s      0.000w     11 calls
| HF: DIIS                          :      0.000u      0.000s      0.022w     10 calls
| | DIISManager::add_entry          :      0.000u      0.000s      0.004w     10 calls
| | DIISManager::extrapolate        :      0.000u      0.000s      0.004w     10 calls
| | | bMatrix setup                 :      0.000u      0.000s      0.002w     10 calls
| | | bMatrix pseudoinverse         :      0.000u      0.000s      0.000w     10 calls
| | | New vector                    :      0.000u      0.000s      0.002w     10 calls
| HF: Form C                        :      0.000u      0.000s      0.016w     10 calls
SAPT: Monomer A SCF                 :      0.000u      0.000s      0.858w      1 calls
| Libint2ERI::Libint2ERI            :      0.000u      0.000s      0.039w      2 calls
| HF: Form core H                   :      0.000u      0.000s      0.020w      1 calls
| HF: Form S/X                      :      0.000u      0.000s      0.001w      1 calls
| HF: Guess                         :      0.000u      0.000s      0.036w      1 calls
| | SAD Guess                       :      0.000u      0.000s      0.035w      1 calls
| HF: Form G                        :      0.000u      0.000s      0.258w     10 calls
| | JK: D                           :      0.000u      0.000s      0.000w     10 calls
| | JK: USO2AO                      :      0.000u      0.000s      0.000w     10 calls
| | JK: JK                          :      0.000u      0.000s      0.257w     10 calls
| | | JK: J                         :      0.000u      0.000s      0.020w     10 calls
| | | | JK: J1                      :      0.000u      0.000s      0.009w     10 calls
| | | | JK: J2                      :      0.000u      0.000s      0.010w     10 calls
| | | JK: K                         :      0.000u      0.000s      0.229w     10 calls
| | | | JK: K1                      :      0.000u      0.000s      0.209w     10 calls
| | | | JK: K2                      :      0.000u      0.000s      0.020w     10 calls
| | JK: AO2USO                      :      0.000u      0.000s      0.000w     10 calls
| HF: Form F                        :      0.000u      0.000s      0.000w     10 calls
| HF: Form D                        :      0.000u      0.000s      0.000w     10 calls
| HF: DIIS                          :      0.000u      0.000s      0.021w      9 calls
| | DIISManager::add_entry          :      0.000u      0.000s      0.004w      9 calls
| | DIISManager::extrapolate        :      0.000u      0.000s      0.004w      9 calls
| | | bMatrix setup                 :      0.000u      0.000s      0.002w      9 calls
| | | bMatrix pseudoinverse         :      0.000u      0.000s      0.000w      9 calls
| | | New vector                    :      0.000u      0.000s      0.001w      9 calls
| HF: Form C                        :      0.000u      0.000s      0.016w      9 calls
SAPT: Monomer B SCF                 :      0.000u      0.000s      0.956w      1 calls
| Libint2ERI::Libint2ERI            :      0.000u      0.000s      0.037w      2 calls
| HF: Form core H                   :      0.000u      0.000s      0.021w      1 calls
| HF: Form S/X                      :      0.000u      0.000s      0.001w      1 calls
| HF: Guess                         :      0.000u      0.000s      0.047w      1 calls
| | SAD Guess                       :      0.000u      0.000s      0.046w      1 calls
| HF: Form G                        :      0.000u      0.000s      0.297w     10 calls
| | JK: D                           :      0.000u      0.000s      0.000w     10 calls
| | JK: USO2AO                      :      0.000u      0.000s      0.000w     10 calls
| | JK: JK                          :      0.000u      0.000s      0.296w     10 calls
| | | JK: J                         :      0.000u      0.000s      0.022w     10 calls
| | | | JK: J1                      :      0.000u      0.000s      0.011w     10 calls
| | | | JK: J2                      :      0.000u      0.000s      0.011w     10 calls
| | | JK: K                         :      0.000u      0.000s      0.266w     10 calls
| | | | JK: K1                      :      0.000u      0.000s      0.247w     10 calls
| | | | JK: K2                      :      0.000u      0.000s      0.019w     10 calls
| | JK: AO2USO                      :      0.000u      0.000s      0.000w     10 calls
| HF: Form F                        :      0.000u      0.000s      0.000w     10 calls
| HF: Form D                        :      0.000u      0.000s      0.000w     10 calls
| HF: DIIS                          :      0.000u      0.000s      0.019w      9 calls
| | DIISManager::add_entry          :      0.000u      0.000s      0.003w      9 calls
| | DIISManager::extrapolate        :      0.000u      0.000s      0.003w      9 calls
| | | bMatrix setup                 :      0.000u      0.000s      0.002w      9 calls
| | | bMatrix pseudoinverse         :      0.000u      0.000s      0.000w      9 calls
| | | New vector                    :      0.000u      0.000s      0.001w      9 calls
| HF: Form C                        :      0.000u      0.000s      0.015w      9 calls
SAPT0: DF Integrals                 :      0.000u      0.000s      0.415w      1 calls
| Libint2ERI::Libint2ERI            :      0.000u      0.000s      0.039w      4 calls
SAPT0: W Integrals                  :      0.000u      0.000s      0.003w      1 calls
SAPT0: Elst10                       :      0.000u      0.000s      0.000w      1 calls
SAPT0: Exch10                       :      0.000u      0.000s      0.008w      1 calls
SAPT0: Exch10 S^2                   :      0.000u      0.000s      0.001w      1 calls
SAPT0: Ind20                        :      0.000u      0.000s      0.269w      1 calls
SAPT0: Exch-Ind20                   :      0.000u      0.000s      0.054w      1 calls
SAPT0: Exch-Disp20 N^5              :      0.000u      0.000s      0.109w      1 calls
SAPT0: Exch-Disp20 N^4              :      0.000u      0.000s      0.242w      1 calls

**************************************************************************************

Host: G5

Timers On : Sat May 13 20:58:41 2023
Timers Off: Sat May 13 20:58:43 2023

Wall Time:        1.84 seconds

                                                       Time (seconds)
Module                                       User      System        Wall        Calls

--------------------------------------------------------------------------------------

**************************************************************************************

Host: G5

Timers On : Sat May 13 21:00:57 2023
Timers Off: Sat May 13 21:02:38 2023

Wall Time:      101.35 seconds

                                                       Time (seconds)
Module                                       User      System        Wall        Calls
SAPT: Dimer SCF                     :      0.000u      0.000s      3.483w      1 calls
Libint2ERI::Libint2ERI              :      0.000u      0.000s      0.353w     11 calls
JK: (A|mn)                          :      0.000u      0.000s      0.277w      1 calls
JK: (A|Q)^-1/2                      :      0.000u      0.000s      0.163w      1 calls
JK: (Q|mn)                          :      0.000u      0.000s      0.147w      1 calls
HF: Form core H                     :      0.000u      0.000s      0.162w      3 calls
HF: Form S/X                        :      0.000u      0.000s      0.008w      3 calls
HF: Guess                           :      0.000u      0.000s      0.251w      3 calls
SAD Guess                           :      0.000u      0.000s      0.246w      3 calls
HF: Form G                          :      0.000u      0.000s      3.476w     40 calls
JK: D                               :      0.000u      0.000s      0.001w     40 calls
JK: USO2AO                          :      0.000u      0.000s      0.001w     40 calls
JK: JK                              :      0.000u      0.000s      3.469w     40 calls
JK: J                               :      0.000u      0.000s      0.192w     40 calls
JK: J1                              :      0.000u      0.000s      0.097w     40 calls
JK: J2                              :      0.000u      0.000s      0.092w     40 calls
JK: K                               :      0.000u      0.000s      3.131w     40 calls
JK: K1                              :      0.000u      0.000s      2.748w     40 calls
JK: K2                              :      0.000u      0.000s      0.382w     40 calls
JK: AO2USO                          :      0.000u      0.000s      0.000w     40 calls
HF: Form F                          :      0.000u      0.000s      0.002w     40 calls
HF: Form D                          :      0.000u      0.000s      0.001w     40 calls
HF: DIIS                            :      0.000u      0.000s      0.167w     37 calls
DIISManager::add_entry              :      0.000u      0.000s      0.064w     37 calls
DIISManager::extrapolate            :      0.000u      0.000s      0.031w     37 calls
bMatrix setup                       :      0.000u      0.000s      0.017w     37 calls
bMatrix pseudoinverse               :      0.000u      0.000s      0.002w     37 calls
New vector                          :      0.000u      0.000s      0.013w     37 calls
HF: Form C                          :      0.000u      0.000s      0.113w     37 calls
SAPT: Monomer A SCF                 :      0.000u      0.000s      2.175w      1 calls
SAPT: Monomer B SCF                 :      0.000u      0.000s      1.837w      1 calls
SAPT0: DF Integrals                 :      0.000u      0.000s      1.588w      1 calls
SAPT0: W Integrals                  :      0.000u      0.000s      0.006w      1 calls
SAPT0: Elst10                       :      0.000u      0.000s      0.001w      1 calls
SAPT0: Exch10                       :      0.000u      0.000s      0.024w      1 calls
SAPT0: Exch10 S^2                   :      0.000u      0.000s      0.002w      1 calls
SAPT0: Ind20                        :      0.000u      0.000s      1.258w      1 calls
SAPT0: Exch-Ind20                   :      0.000u      0.000s      0.065w      1 calls
SAPT0: Exch-Disp20 N^5              :      0.000u      0.000s      0.246w      1 calls
SAPT0: Exch-Disp20 N^4              :      0.000u      0.000s      0.648w      1 calls

--------------------------------------------------------------------------------------
SAPT: Dimer SCF                     :      0.000u      0.000s      3.483w      1 calls
| Libint2ERI::Libint2ERI            :      0.000u      0.000s      0.106w      2 calls
| JK: (A|mn)                        :      0.000u      0.000s      0.277w      1 calls
| JK: (A|Q)^-1/2                    :      0.000u      0.000s      0.163w      1 calls
| | Libint2ERI::Libint2ERI          :      0.000u      0.000s      0.000w      1 calls
| JK: (Q|mn)                        :      0.000u      0.000s      0.147w      1 calls
| HF: Form core H                   :      0.000u      0.000s      0.048w      1 calls
| HF: Form S/X                      :      0.000u      0.000s      0.003w      1 calls
| HF: Guess                         :      0.000u      0.000s      0.108w      1 calls
| | SAD Guess                       :      0.000u      0.000s      0.106w      1 calls
| HF: Form G                        :      0.000u      0.000s      1.478w     16 calls
| | JK: D                           :      0.000u      0.000s      0.001w     16 calls
| | JK: USO2AO                      :      0.000u      0.000s      0.000w     16 calls
| | JK: JK                          :      0.000u      0.000s      1.475w     16 calls
| | | JK: J                         :      0.000u      0.000s      0.074w     16 calls
| | | | JK: J1                      :      0.000u      0.000s      0.038w     16 calls
| | | | JK: J2                      :      0.000u      0.000s      0.034w     16 calls
| | | JK: K                         :      0.000u      0.000s      1.316w     16 calls
| | | | JK: K1                      :      0.000u      0.000s      1.099w     16 calls
| | | | JK: K2                      :      0.000u      0.000s      0.216w     16 calls
| | JK: AO2USO                      :      0.000u      0.000s      0.000w     16 calls
| HF: Form F                        :      0.000u      0.000s      0.001w     16 calls
| HF: Form D                        :      0.000u      0.000s      0.001w     16 calls
| HF: DIIS                          :      0.000u      0.000s      0.046w     15 calls
| | DIISManager::add_entry          :      0.000u      0.000s      0.005w     15 calls
| | DIISManager::extrapolate        :      0.000u      0.000s      0.014w     15 calls
| | | bMatrix setup                 :      0.000u      0.000s      0.007w     15 calls
| | | bMatrix pseudoinverse         :      0.000u      0.000s      0.001w     15 calls
| | | New vector                    :      0.000u      0.000s      0.005w     15 calls
| HF: Form C                        :      0.000u      0.000s      0.047w     15 calls
SAPT: Monomer A SCF                 :      0.000u      0.000s      2.175w      1 calls
| Libint2ERI::Libint2ERI            :      0.000u      0.000s      0.068w      2 calls
| HF: Form core H                   :      0.000u      0.000s      0.064w      1 calls
| HF: Form S/X                      :      0.000u      0.000s      0.003w      1 calls
| HF: Guess                         :      0.000u      0.000s      0.090w      1 calls
| | SAD Guess                       :      0.000u      0.000s      0.089w      1 calls
| HF: Form G                        :      0.000u      0.000s      1.145w     13 calls
| | JK: D                           :      0.000u      0.000s      0.000w     13 calls
| | JK: USO2AO                      :      0.000u      0.000s      0.000w     13 calls
| | JK: JK                          :      0.000u      0.000s      1.143w     13 calls
| | | JK: J                         :      0.000u      0.000s      0.064w     13 calls
| | | | JK: J1                      :      0.000u      0.000s      0.031w     13 calls
| | | | JK: J2                      :      0.000u      0.000s      0.032w     13 calls
| | | JK: K                         :      0.000u      0.000s      1.034w     13 calls
| | | | JK: K1                      :      0.000u      0.000s      0.905w     13 calls
| | | | JK: K2                      :      0.000u      0.000s      0.129w     13 calls
| | JK: AO2USO                      :      0.000u      0.000s      0.000w     13 calls
| HF: Form F                        :      0.000u      0.000s      0.000w     13 calls
| HF: Form D                        :      0.000u      0.000s      0.000w     13 calls
| HF: DIIS                          :      0.000u      0.000s      0.060w     12 calls
| | DIISManager::add_entry          :      0.000u      0.000s      0.027w     12 calls
| | DIISManager::extrapolate        :      0.000u      0.000s      0.010w     12 calls
| | | bMatrix setup                 :      0.000u      0.000s      0.005w     12 calls
| | | bMatrix pseudoinverse         :      0.000u      0.000s      0.001w     12 calls
| | | New vector                    :      0.000u      0.000s      0.004w     12 calls
| HF: Form C                        :      0.000u      0.000s      0.034w     12 calls
SAPT: Monomer B SCF                 :      0.000u      0.000s      1.837w      1 calls
| Libint2ERI::Libint2ERI            :      0.000u      0.000s      0.106w      2 calls
| HF: Form core H                   :      0.000u      0.000s      0.050w      1 calls
| HF: Form S/X                      :      0.000u      0.000s      0.003w      1 calls
| HF: Guess                         :      0.000u      0.000s      0.053w      1 calls
| | SAD Guess                       :      0.000u      0.000s      0.052w      1 calls
| HF: Form G                        :      0.000u      0.000s      0.854w     11 calls
| | JK: D                           :      0.000u      0.000s      0.000w     11 calls
| | JK: USO2AO                      :      0.000u      0.000s      0.000w     11 calls
| | JK: JK                          :      0.000u      0.000s      0.852w     11 calls
| | | JK: J                         :      0.000u      0.000s      0.054w     11 calls
| | | | JK: J1                      :      0.000u      0.000s      0.028w     11 calls
| | | | JK: J2                      :      0.000u      0.000s      0.025w     11 calls
| | | JK: K                         :      0.000u      0.000s      0.781w     11 calls
| | | | JK: K1                      :      0.000u      0.000s      0.744w     11 calls
| | | | JK: K2                      :      0.000u      0.000s      0.037w     11 calls
| | JK: AO2USO                      :      0.000u      0.000s      0.000w     11 calls
| HF: Form F                        :      0.000u      0.000s      0.000w     11 calls
| HF: Form D                        :      0.000u      0.000s      0.000w     11 calls
| HF: DIIS                          :      0.000u      0.000s      0.061w     10 calls
| | DIISManager::add_entry          :      0.000u      0.000s      0.033w     10 calls
| | DIISManager::extrapolate        :      0.000u      0.000s      0.008w     10 calls
| | | bMatrix setup                 :      0.000u      0.000s      0.004w     10 calls
| | | bMatrix pseudoinverse         :      0.000u      0.000s      0.000w     10 calls
| | | New vector                    :      0.000u      0.000s      0.003w     10 calls
| HF: Form C                        :      0.000u      0.000s      0.032w     10 calls
SAPT0: DF Integrals                 :      0.000u      0.000s      1.588w      1 calls
| Libint2ERI::Libint2ERI            :      0.000u      0.000s      0.073w      4 calls
SAPT0: W Integrals                  :      0.000u      0.000s      0.006w      1 calls
SAPT0: Elst10                       :      0.000u      0.000s      0.001w      1 calls
SAPT0: Exch10                       :      0.000u      0.000s      0.024w      1 calls
SAPT0: Exch10 S^2                   :      0.000u      0.000s      0.002w      1 calls
SAPT0: Ind20                        :      0.000u      0.000s      1.258w      1 calls
SAPT0: Exch-Ind20                   :      0.000u      0.000s      0.065w      1 calls
SAPT0: Exch-Disp20 N^5              :      0.000u      0.000s      0.246w      1 calls
SAPT0: Exch-Disp20 N^4              :      0.000u      0.000s      0.648w      1 calls

**************************************************************************************

Host: G5

Timers On : Sat May 13 21:06:26 2023
Timers Off: Sat May 13 21:06:27 2023

Wall Time:        1.31 seconds

                                                       Time (seconds)
Module                                       User      System        Wall        Calls

--------------------------------------------------------------------------------------

**************************************************************************************

Host: G5

Timers On : Sat May 13 21:06:52 2023
Timers Off: Sat May 13 21:08:35 2023

Wall Time:      103.75 seconds

                                                       Time (seconds)
Module                                       User      System        Wall        Calls
SAPT: Dimer SCF                     :      0.000u      0.000s     26.539w      1 calls
Libint2ERI::Libint2ERI              :      0.000u      0.000s      3.796w     11 calls
JK: (A|mn)                          :      0.000u      0.000s      1.465w      1 calls
JK: (A|Q)^-1/2                      :      0.000u      0.000s      0.454w      1 calls
JK: (Q|mn)                          :      0.000u      0.000s      1.210w      1 calls
HF: Form core H                     :      0.000u      0.000s      0.990w      3 calls
HF: Form S/X                        :      0.000u      0.000s      0.031w      3 calls
HF: Guess                           :      0.000u      0.000s      0.435w      3 calls
SAD Guess                           :      0.000u      0.000s      0.430w      3 calls
HF: Form G                          :      0.000u      0.000s     38.851w     44 calls
JK: D                               :      0.000u      0.000s      0.005w     44 calls
JK: USO2AO                          :      0.000u      0.000s      0.002w     44 calls
JK: JK                              :      0.000u      0.000s     38.834w     44 calls
JK: J                               :      0.000u      0.000s      0.876w     44 calls
JK: J1                              :      0.000u      0.000s      0.432w     44 calls
JK: J2                              :      0.000u      0.000s      0.437w     44 calls
JK: K                               :      0.000u      0.000s     37.176w     44 calls
JK: K1                              :      0.000u      0.000s     33.342w     44 calls
JK: K2                              :      0.000u      0.000s      3.833w     44 calls
JK: AO2USO                          :      0.000u      0.000s      0.000w     44 calls
HF: Form F                          :      0.000u      0.000s      0.004w     44 calls
HF: Form D                          :      0.000u      0.000s      0.005w     44 calls
HF: DIIS                            :      0.000u      0.000s      0.373w     41 calls
DIISManager::add_entry              :      0.000u      0.000s      0.137w     41 calls
DIISManager::extrapolate            :      0.000u      0.000s      0.093w     41 calls
bMatrix setup                       :      0.000u      0.000s      0.051w     41 calls
bMatrix pseudoinverse               :      0.000u      0.000s      0.002w     41 calls
New vector                          :      0.000u      0.000s      0.040w     41 calls
HF: Form C                          :      0.000u      0.000s      0.309w     41 calls
SAPT: Monomer A SCF                 :      0.000u      0.000s     12.117w      1 calls
SAPT: Monomer B SCF                 :      0.000u      0.000s     12.684w      1 calls
SAPT0: DF Integrals                 :      0.000u      0.000s      9.328w      1 calls
SAPT0: W Integrals                  :      0.000u      0.000s      0.079w      1 calls
SAPT0: Elst10                       :      0.000u      0.000s      0.009w      1 calls
SAPT0: Exch10                       :      0.000u      0.000s      0.152w      1 calls
SAPT0: Exch10 S^2                   :      0.000u      0.000s      0.026w      1 calls
SAPT0: Ind20                        :      0.000u      0.000s      6.300w      1 calls
SAPT0: Exch-Ind20                   :      0.000u      0.000s      0.354w      1 calls
SAPT0: Exch-Disp20 N^5              :      0.000u      0.000s      1.548w      1 calls
SAPT0: Exch-Disp20 N^4              :      0.000u      0.000s      4.576w      1 calls

--------------------------------------------------------------------------------------
SAPT: Dimer SCF                     :      0.000u      0.000s     26.539w      1 calls
| Libint2ERI::Libint2ERI            :      0.000u      0.000s      1.035w      2 calls
| JK: (A|mn)                        :      0.000u      0.000s      1.465w      1 calls
| JK: (A|Q)^-1/2                    :      0.000u      0.000s      0.454w      1 calls
| | Libint2ERI::Libint2ERI          :      0.000u      0.000s      0.000w      1 calls
| JK: (Q|mn)                        :      0.000u      0.000s      1.210w      1 calls
| HF: Form core H                   :      0.000u      0.000s      0.334w      1 calls
| HF: Form S/X                      :      0.000u      0.000s      0.011w      1 calls
| HF: Guess                         :      0.000u      0.000s      0.225w      1 calls
| | SAD Guess                       :      0.000u      0.000s      0.223w      1 calls
| HF: Form G                        :      0.000u      0.000s     19.047w     20 calls
| | JK: D                           :      0.000u      0.000s      0.003w     20 calls
| | JK: USO2AO                      :      0.000u      0.000s      0.001w     20 calls
| | JK: JK                          :      0.000u      0.000s     19.039w     20 calls
| | | JK: J                         :      0.000u      0.000s      0.386w     20 calls
| | | | JK: J1                      :      0.000u      0.000s      0.192w     20 calls
| | | | JK: J2                      :      0.000u      0.000s      0.190w     20 calls
| | | JK: K                         :      0.000u      0.000s     18.169w     20 calls
| | | | JK: K1                      :      0.000u      0.000s     15.729w     20 calls
| | | | JK: K2                      :      0.000u      0.000s      2.440w     20 calls
| | JK: AO2USO                      :      0.000u      0.000s      0.000w     20 calls
| HF: Form F                        :      0.000u      0.000s      0.002w     20 calls
| HF: Form D                        :      0.000u      0.000s      0.003w     20 calls
| HF: DIIS                          :      0.000u      0.000s      0.126w     19 calls
| | DIISManager::add_entry          :      0.000u      0.000s      0.011w     19 calls
| | DIISManager::extrapolate        :      0.000u      0.000s      0.047w     19 calls
| | | bMatrix setup                 :      0.000u      0.000s      0.025w     19 calls
| | | bMatrix pseudoinverse         :      0.000u      0.000s      0.001w     19 calls
| | | New vector                    :      0.000u      0.000s      0.020w     19 calls
| HF: Form C                        :      0.000u      0.000s      0.141w     19 calls
SAPT: Monomer A SCF                 :      0.000u      0.000s     12.117w      1 calls
| Libint2ERI::Libint2ERI            :      0.000u      0.000s      0.902w      2 calls
| HF: Form core H                   :      0.000u      0.000s      0.344w      1 calls
| HF: Form S/X                      :      0.000u      0.000s      0.011w      1 calls
| HF: Guess                         :      0.000u      0.000s      0.124w      1 calls
| | SAD Guess                       :      0.000u      0.000s      0.122w      1 calls
| HF: Form G                        :      0.000u      0.000s      9.660w     11 calls
| | JK: D                           :      0.000u      0.000s      0.001w     11 calls
| | JK: USO2AO                      :      0.000u      0.000s      0.001w     11 calls
| | JK: JK                          :      0.000u      0.000s      9.656w     11 calls
| | | JK: J                         :      0.000u      0.000s      0.218w     11 calls
| | | | JK: J1                      :      0.000u      0.000s      0.106w     11 calls
| | | | JK: J2                      :      0.000u      0.000s      0.110w     11 calls
| | | JK: K                         :      0.000u      0.000s      9.253w     11 calls
| | | | JK: K1                      :      0.000u      0.000s      8.337w     11 calls
| | | | JK: K2                      :      0.000u      0.000s      0.915w     11 calls
| | JK: AO2USO                      :      0.000u      0.000s      0.000w     11 calls
| HF: Form F                        :      0.000u      0.000s      0.001w     11 calls
| HF: Form D                        :      0.000u      0.000s      0.001w     11 calls
| HF: DIIS                          :      0.000u      0.000s      0.103w     10 calls
| | DIISManager::add_entry          :      0.000u      0.000s      0.047w     10 calls
| | DIISManager::extrapolate        :      0.000u      0.000s      0.020w     10 calls
| | | bMatrix setup                 :      0.000u      0.000s      0.011w     10 calls
| | | bMatrix pseudoinverse         :      0.000u      0.000s      0.001w     10 calls
| | | New vector                    :      0.000u      0.000s      0.009w     10 calls
| HF: Form C                        :      0.000u      0.000s      0.075w     10 calls
SAPT: Monomer B SCF                 :      0.000u      0.000s     12.684w      1 calls
| Libint2ERI::Libint2ERI            :      0.000u      0.000s      0.893w      2 calls
| HF: Form core H                   :      0.000u      0.000s      0.313w      1 calls
| HF: Form S/X                      :      0.000u      0.000s      0.009w      1 calls
| HF: Guess                         :      0.000u      0.000s      0.086w      1 calls
| | SAD Guess                       :      0.000u      0.000s      0.085w      1 calls
| HF: Form G                        :      0.000u      0.000s     10.144w     13 calls
| | JK: D                           :      0.000u      0.000s      0.001w     13 calls
| | JK: USO2AO                      :      0.000u      0.000s      0.001w     13 calls
| | JK: JK                          :      0.000u      0.000s     10.139w     13 calls
| | | JK: J                         :      0.000u      0.000s      0.273w     13 calls
| | | | JK: J1                      :      0.000u      0.000s      0.134w     13 calls
| | | | JK: J2                      :      0.000u      0.000s      0.137w     13 calls
| | | JK: K                         :      0.000u      0.000s      9.754w     13 calls
| | | | JK: K1                      :      0.000u      0.000s      9.275w     13 calls
| | | | JK: K2                      :      0.000u      0.000s      0.478w     13 calls
| | JK: AO2USO                      :      0.000u      0.000s      0.000w     13 calls
| HF: Form F                        :      0.000u      0.000s      0.001w     13 calls
| HF: Form D                        :      0.000u      0.000s      0.001w     13 calls
| HF: DIIS                          :      0.000u      0.000s      0.145w     12 calls
| | DIISManager::add_entry          :      0.000u      0.000s      0.079w     12 calls
| | DIISManager::extrapolate        :      0.000u      0.000s      0.026w     12 calls
| | | bMatrix setup                 :      0.000u      0.000s      0.014w     12 calls
| | | bMatrix pseudoinverse         :      0.000u      0.000s      0.001w     12 calls
| | | New vector                    :      0.000u      0.000s      0.011w     12 calls
| HF: Form C                        :      0.000u      0.000s      0.093w     12 calls
SAPT0: DF Integrals                 :      0.000u      0.000s      9.328w      1 calls
| Libint2ERI::Libint2ERI            :      0.000u      0.000s      0.966w      4 calls
SAPT0: W Integrals                  :      0.000u      0.000s      0.079w      1 calls
SAPT0: Elst10                       :      0.000u      0.000s      0.009w      1 calls
SAPT0: Exch10                       :      0.000u      0.000s      0.152w      1 calls
SAPT0: Exch10 S^2                   :      0.000u      0.000s      0.026w      1 calls
SAPT0: Ind20                        :      0.000u      0.000s      6.300w      1 calls
SAPT0: Exch-Ind20                   :      0.000u      0.000s      0.354w      1 calls
SAPT0: Exch-Disp20 N^5              :      0.000u      0.000s      1.548w      1 calls
SAPT0: Exch-Disp20 N^4              :      0.000u      0.000s      4.576w      1 calls

**************************************************************************************

Host: G5

Timers On : Sat May 13 21:15:10 2023
Timers Off: Sat May 13 21:15:12 2023

Wall Time:        1.46 seconds

                                                       Time (seconds)
Module                                       User      System        Wall        Calls

--------------------------------------------------------------------------------------

**************************************************************************************

Host: G5

Timers On : Sat May 13 21:15:39 2023
Timers Off: Sat May 13 21:17:06 2023

Wall Time:       87.26 seconds

                                                       Time (seconds)
Module                                       User      System        Wall        Calls
SAPT: Dimer SCF                     :      0.000u      0.000s     28.597w      2 calls
Libint2ERI::Libint2ERI              :      0.000u      0.000s      3.902w     22 calls
JK: (A|mn)                          :      0.000u      0.000s      1.694w      2 calls
JK: (A|Q)^-1/2                      :      0.000u      0.000s      0.624w      2 calls
JK: (Q|mn)                          :      0.000u      0.000s      1.235w      2 calls
HF: Form core H                     :      0.000u      0.000s      1.087w      6 calls
HF: Form S/X                        :      0.000u      0.000s      0.037w      6 calls
HF: Guess                           :      0.000u      0.000s      0.580w      6 calls
SAD Guess                           :      0.000u      0.000s      0.570w      6 calls
HF: Form G                          :      0.000u      0.000s     42.277w     84 calls
JK: D                               :      0.000u      0.000s      0.007w     84 calls
JK: USO2AO                          :      0.000u      0.000s      0.002w     84 calls
JK: JK                              :      0.000u      0.000s     42.254w     84 calls
JK: J                               :      0.000u      0.000s      1.070w     84 calls
JK: J1                              :      0.000u      0.000s      0.520w     84 calls
JK: J2                              :      0.000u      0.000s      0.540w     84 calls
JK: K                               :      0.000u      0.000s     40.341w     84 calls
JK: K1                              :      0.000u      0.000s     36.228w     84 calls
JK: K2                              :      0.000u      0.000s      4.112w     84 calls
JK: AO2USO                          :      0.000u      0.000s      0.000w     84 calls
HF: Form F                          :      0.000u      0.000s      0.005w     84 calls
HF: Form D                          :      0.000u      0.000s      0.006w     84 calls
HF: DIIS                            :      0.000u      0.000s      0.568w     78 calls
DIISManager::add_entry              :      0.000u      0.000s      0.220w     78 calls
DIISManager::extrapolate            :      0.000u      0.000s      0.120w     78 calls
bMatrix setup                       :      0.000u      0.000s      0.063w     78 calls
bMatrix pseudoinverse               :      0.000u      0.000s      0.004w     78 calls
New vector                          :      0.000u      0.000s      0.053w     78 calls
HF: Form C                          :      0.000u      0.000s      0.437w     78 calls
SAPT: Monomer A SCF                 :      0.000u      0.000s     14.344w      2 calls
SAPT: Monomer B SCF                 :      0.000u      0.000s     14.526w      2 calls
SAPT0: DF Integrals                 :      0.000u      0.000s     10.851w      2 calls
SAPT0: W Integrals                  :      0.000u      0.000s      0.049w      2 calls
SAPT0: Elst10                       :      0.000u      0.000s      0.000w      2 calls
SAPT0: Exch10                       :      0.000u      0.000s      0.035w      2 calls
SAPT0: Exch10 S^2                   :      0.000u      0.000s      0.025w      2 calls
SAPT0: Ind20                        :      0.000u      0.000s      7.649w      2 calls
SAPT0: Exch-Ind20                   :      0.000u      0.000s      0.304w      2 calls
SAPT0: Exch-Disp20 N^5              :      0.000u      0.000s      1.796w      2 calls
SAPT0: Exch-Disp20 N^4              :      0.000u      0.000s      5.258w      2 calls

--------------------------------------------------------------------------------------
SAPT: Dimer SCF                     :      0.000u      0.000s     28.597w      2 calls
| Libint2ERI::Libint2ERI            :      0.000u      0.000s      0.963w      4 calls
| JK: (A|mn)                        :      0.000u      0.000s      1.694w      2 calls
| JK: (A|Q)^-1/2                    :      0.000u      0.000s      0.624w      2 calls
| | Libint2ERI::Libint2ERI          :      0.000u      0.000s      0.000w      2 calls
| JK: (Q|mn)                        :      0.000u      0.000s      1.235w      2 calls
| HF: Form core H                   :      0.000u      0.000s      0.340w      2 calls
| HF: Form S/X                      :      0.000u      0.000s      0.012w      2 calls
| HF: Guess                         :      0.000u      0.000s      0.253w      2 calls
| | SAD Guess                       :      0.000u      0.000s      0.249w      2 calls
| HF: Form G                        :      0.000u      0.000s     20.235w     36 calls
| | JK: D                           :      0.000u      0.000s      0.003w     36 calls
| | JK: USO2AO                      :      0.000u      0.000s      0.001w     36 calls
| | JK: JK                          :      0.000u      0.000s     20.224w     36 calls
| | | JK: J                         :      0.000u      0.000s      0.486w     36 calls
| | | | JK: J1                      :      0.000u      0.000s      0.233w     36 calls
| | | | JK: J2                      :      0.000u      0.000s      0.248w     36 calls
| | | JK: K                         :      0.000u      0.000s     19.234w     36 calls
| | | | JK: K1                      :      0.000u      0.000s     16.667w     36 calls
| | | | JK: K2                      :      0.000u      0.000s      2.567w     36 calls
| | JK: AO2USO                      :      0.000u      0.000s      0.000w     36 calls
| HF: Form F                        :      0.000u      0.000s      0.002w     36 calls
| HF: Form D                        :      0.000u      0.000s      0.003w     36 calls
| HF: DIIS                          :      0.000u      0.000s      0.219w     34 calls
| | DIISManager::add_entry          :      0.000u      0.000s      0.061w     34 calls
| | DIISManager::extrapolate        :      0.000u      0.000s      0.061w     34 calls
| | | bMatrix setup                 :      0.000u      0.000s      0.032w     34 calls
| | | bMatrix pseudoinverse         :      0.000u      0.000s      0.002w     34 calls
| | | New vector                    :      0.000u      0.000s      0.027w     34 calls
| HF: Form C                        :      0.000u      0.000s      0.187w     34 calls
SAPT: Monomer A SCF                 :      0.000u      0.000s     14.344w      2 calls
| Libint2ERI::Libint2ERI            :      0.000u      0.000s      0.973w      4 calls
| HF: Form core H                   :      0.000u      0.000s      0.368w      2 calls
| HF: Form S/X                      :      0.000u      0.000s      0.010w      2 calls
| HF: Guess                         :      0.000u      0.000s      0.184w      2 calls
| | SAD Guess                       :      0.000u      0.000s      0.182w      2 calls
| HF: Form G                        :      0.000u      0.000s     10.922w     24 calls
| | JK: D                           :      0.000u      0.000s      0.002w     24 calls
| | JK: USO2AO                      :      0.000u      0.000s      0.001w     24 calls
| | JK: JK                          :      0.000u      0.000s     10.916w     24 calls
| | | JK: J                         :      0.000u      0.000s      0.272w     24 calls
| | | | JK: J1                      :      0.000u      0.000s      0.136w     24 calls
| | | | JK: J2                      :      0.000u      0.000s      0.134w     24 calls
| | | JK: K                         :      0.000u      0.000s     10.413w     24 calls
| | | | JK: K1                      :      0.000u      0.000s      9.411w     24 calls
| | | | JK: K2                      :      0.000u      0.000s      1.001w     24 calls
| | JK: AO2USO                      :      0.000u      0.000s      0.000w     24 calls
| HF: Form F                        :      0.000u      0.000s      0.002w     24 calls
| HF: Form D                        :      0.000u      0.000s      0.002w     24 calls
| HF: DIIS                          :      0.000u      0.000s      0.174w     22 calls
| | DIISManager::add_entry          :      0.000u      0.000s      0.082w     22 calls
| | DIISManager::extrapolate        :      0.000u      0.000s      0.027w     22 calls
| | | bMatrix setup                 :      0.000u      0.000s      0.015w     22 calls
| | | bMatrix pseudoinverse         :      0.000u      0.000s      0.001w     22 calls
| | | New vector                    :      0.000u      0.000s      0.011w     22 calls
| HF: Form C                        :      0.000u      0.000s      0.118w     22 calls
SAPT: Monomer B SCF                 :      0.000u      0.000s     14.526w      2 calls
| Libint2ERI::Libint2ERI            :      0.000u      0.000s      0.972w      4 calls
| HF: Form core H                   :      0.000u      0.000s      0.378w      2 calls
| HF: Form S/X                      :      0.000u      0.000s      0.014w      2 calls
| HF: Guess                         :      0.000u      0.000s      0.143w      2 calls
| | SAD Guess                       :      0.000u      0.000s      0.139w      2 calls
| HF: Form G                        :      0.000u      0.000s     11.120w     24 calls
| | JK: D                           :      0.000u      0.000s      0.001w     24 calls
| | JK: USO2AO                      :      0.000u      0.000s      0.001w     24 calls
| | JK: JK                          :      0.000u      0.000s     11.114w     24 calls
| | | JK: J                         :      0.000u      0.000s      0.312w     24 calls
| | | | JK: J1                      :      0.000u      0.000s      0.151w     24 calls
| | | | JK: J2                      :      0.000u      0.000s      0.158w     24 calls
| | | JK: K                         :      0.000u      0.000s     10.694w     24 calls
| | | | JK: K1                      :      0.000u      0.000s     10.149w     24 calls
| | | | JK: K2                      :      0.000u      0.000s      0.544w     24 calls
| | JK: AO2USO                      :      0.000u      0.000s      0.000w     24 calls
| HF: Form F                        :      0.000u      0.000s      0.001w     24 calls
| HF: Form D                        :      0.000u      0.000s      0.001w     24 calls
| HF: DIIS                          :      0.000u      0.000s      0.174w     22 calls
| | DIISManager::add_entry          :      0.000u      0.000s      0.077w     22 calls
| | DIISManager::extrapolate        :      0.000u      0.000s      0.032w     22 calls
| | | bMatrix setup                 :      0.000u      0.000s      0.017w     22 calls
| | | bMatrix pseudoinverse         :      0.000u      0.000s      0.001w     22 calls
| | | New vector                    :      0.000u      0.000s      0.014w     22 calls
| HF: Form C                        :      0.000u      0.000s      0.132w     22 calls
SAPT0: DF Integrals                 :      0.000u      0.000s     10.851w      2 calls
| Libint2ERI::Libint2ERI            :      0.000u      0.000s      0.993w      8 calls
SAPT0: W Integrals                  :      0.000u      0.000s      0.049w      2 calls
SAPT0: Elst10                       :      0.000u      0.000s      0.000w      2 calls
SAPT0: Exch10                       :      0.000u      0.000s      0.035w      2 calls
SAPT0: Exch10 S^2                   :      0.000u      0.000s      0.025w      2 calls
SAPT0: Ind20                        :      0.000u      0.000s      7.649w      2 calls
SAPT0: Exch-Ind20                   :      0.000u      0.000s      0.304w      2 calls
SAPT0: Exch-Disp20 N^5              :      0.000u      0.000s      1.796w      2 calls
SAPT0: Exch-Disp20 N^4              :      0.000u      0.000s      5.258w      2 calls

**************************************************************************************

Host: G5

Timers On : Sat May 13 21:18:07 2023
Timers Off: Wed May 17 21:18:46 2023

Wall Time:   345654.20 seconds

                                                       Time (seconds)
Module                                       User      System        Wall        Calls
SAPT: Dimer SCF                     :      0.000u      0.000s     31.539w      2 calls
Libint2ERI::Libint2ERI              :      0.000u      0.000s      4.949w     22 calls
JK: (A|mn)                          :      0.000u      0.000s      1.717w      2 calls
JK: (A|Q)^-1/2                      :      0.000u      0.000s      0.557w      2 calls
JK: (Q|mn)                          :      0.000u      0.000s      1.253w      2 calls
HF: Form core H                     :      0.000u      0.000s      1.254w      6 calls
HF: Form S/X                        :      0.000u      0.000s      0.057w      6 calls
HF: Guess                           :      0.000u      0.000s      1.020w      6 calls
SAD Guess                           :      0.000u      0.000s      1.004w      6 calls
HF: Form G                          :      0.000u      0.000s     53.815w     84 calls
JK: D                               :      0.000u      0.000s      0.008w     84 calls
JK: USO2AO                          :      0.000u      0.000s      0.004w     84 calls
JK: JK                              :      0.000u      0.000s     53.788w     84 calls
JK: J                               :      0.000u      0.000s      1.178w     84 calls
JK: J1                              :      0.000u      0.000s      0.582w     84 calls
JK: J2                              :      0.000u      0.000s      0.584w     84 calls
JK: K                               :      0.000u      0.000s     51.651w     84 calls
JK: K1                              :      0.000u      0.000s     46.472w     84 calls
JK: K2                              :      0.000u      0.000s      5.177w     84 calls
JK: AO2USO                          :      0.000u      0.000s      0.000w     84 calls
HF: Form F                          :      0.000u      0.000s      0.006w     84 calls
HF: Form D                          :      0.000u      0.000s      0.008w     84 calls
HF: DIIS                            :      0.000u      0.000s      0.612w     78 calls
DIISManager::add_entry              :      0.000u      0.000s      0.197w     78 calls
DIISManager::extrapolate            :      0.000u      0.000s      0.148w     78 calls
bMatrix setup                       :      0.000u      0.000s      0.079w     78 calls
bMatrix pseudoinverse               :      0.000u      0.000s      0.004w     78 calls
New vector                          :      0.000u      0.000s      0.063w     78 calls
HF: Form C                          :      0.000u      0.000s      0.513w     78 calls
SAPT: Monomer A SCF                 :      0.000u      0.000s     19.753w      2 calls
SAPT: Monomer B SCF                 :      0.000u      0.000s     19.362w      2 calls
SAPT0: DF Integrals                 :      0.000u      0.000s     13.193w      2 calls
SAPT0: W Integrals                  :      0.000u      0.000s      0.098w      2 calls
SAPT0: Elst10                       :      0.000u      0.000s      0.000w      2 calls
SAPT0: Exch10                       :      0.000u      0.000s      0.039w      2 calls
SAPT0: Exch10 S^2                   :      0.000u      0.000s      0.029w      2 calls
SAPT0: Ind20                        :      0.000u      0.000s      8.377w      2 calls
SAPT0: Exch-Ind20                   :      0.000u      0.000s      0.359w      2 calls
SAPT0: Exch-Disp20 N^5              :      0.000u      0.000s      2.122w      2 calls
SAPT0: Exch-Disp20 N^4              :      0.000u      0.000s      5.455w      2 calls

--------------------------------------------------------------------------------------
SAPT: Dimer SCF                     :      0.000u      0.000s     31.539w      2 calls
| Libint2ERI::Libint2ERI            :      0.000u      0.000s      0.993w      4 calls
| JK: (A|mn)                        :      0.000u      0.000s      1.717w      2 calls
| JK: (A|Q)^-1/2                    :      0.000u      0.000s      0.557w      2 calls
| | Libint2ERI::Libint2ERI          :      0.000u      0.000s      0.000w      2 calls
| JK: (Q|mn)                        :      0.000u      0.000s      1.253w      2 calls
| HF: Form core H                   :      0.000u      0.000s      0.401w      2 calls
| HF: Form S/X                      :      0.000u      0.000s      0.017w      2 calls
| HF: Guess                         :      0.000u      0.000s      0.476w      2 calls
| | SAD Guess                       :      0.000u      0.000s      0.470w      2 calls
| HF: Form G                        :      0.000u      0.000s     23.569w     36 calls
| | JK: D                           :      0.000u      0.000s      0.004w     36 calls
| | JK: USO2AO                      :      0.000u      0.000s      0.001w     36 calls
| | JK: JK                          :      0.000u      0.000s     23.556w     36 calls
| | | JK: J                         :      0.000u      0.000s      0.505w     36 calls
| | | | JK: J1                      :      0.000u      0.000s      0.251w     36 calls
| | | | JK: J2                      :      0.000u      0.000s      0.249w     36 calls
| | | JK: K                         :      0.000u      0.000s     22.486w     36 calls
| | | | JK: K1                      :      0.000u      0.000s     19.238w     36 calls
| | | | JK: K2                      :      0.000u      0.000s      3.247w     36 calls
| | JK: AO2USO                      :      0.000u      0.000s      0.000w     36 calls
| HF: Form F                        :      0.000u      0.000s      0.003w     36 calls
| HF: Form D                        :      0.000u      0.000s      0.005w     36 calls
| HF: DIIS                          :      0.000u      0.000s      0.209w     34 calls
| | DIISManager::add_entry          :      0.000u      0.000s      0.022w     34 calls
| | DIISManager::extrapolate        :      0.000u      0.000s      0.072w     34 calls
| | | bMatrix setup                 :      0.000u      0.000s      0.038w     34 calls
| | | bMatrix pseudoinverse         :      0.000u      0.000s      0.002w     34 calls
| | | New vector                    :      0.000u      0.000s      0.032w     34 calls
| HF: Form C                        :      0.000u      0.000s      0.229w     34 calls
SAPT: Monomer A SCF                 :      0.000u      0.000s     19.753w      2 calls
| Libint2ERI::Libint2ERI            :      0.000u      0.000s      1.457w      4 calls
| HF: Form core H                   :      0.000u      0.000s      0.442w      2 calls
| HF: Form S/X                      :      0.000u      0.000s      0.019w      2 calls
| HF: Guess                         :      0.000u      0.000s      0.218w      2 calls
| | SAD Guess                       :      0.000u      0.000s      0.214w      2 calls
| HF: Form G                        :      0.000u      0.000s     15.001w     24 calls
| | JK: D                           :      0.000u      0.000s      0.002w     24 calls
| | JK: USO2AO                      :      0.000u      0.000s      0.001w     24 calls
| | JK: JK                          :      0.000u      0.000s     14.994w     24 calls
| | | JK: J                         :      0.000u      0.000s      0.316w     24 calls
| | | | JK: J1                      :      0.000u      0.000s      0.157w     24 calls
| | | | JK: J2                      :      0.000u      0.000s      0.156w     24 calls
| | | JK: K                         :      0.000u      0.000s     14.426w     24 calls
| | | | JK: K1                      :      0.000u      0.000s     13.123w     24 calls
| | | | JK: K2                      :      0.000u      0.000s      1.302w     24 calls
| | JK: AO2USO                      :      0.000u      0.000s      0.000w     24 calls
| HF: Form F                        :      0.000u      0.000s      0.002w     24 calls
| HF: Form D                        :      0.000u      0.000s      0.002w     24 calls
| HF: DIIS                          :      0.000u      0.000s      0.186w     22 calls
| | DIISManager::add_entry          :      0.000u      0.000s      0.077w     22 calls
| | DIISManager::extrapolate        :      0.000u      0.000s      0.035w     22 calls
| | | bMatrix setup                 :      0.000u      0.000s      0.019w     22 calls
| | | bMatrix pseudoinverse         :      0.000u      0.000s      0.001w     22 calls
| | | New vector                    :      0.000u      0.000s      0.015w     22 calls
| HF: Form C                        :      0.000u      0.000s      0.139w     22 calls
SAPT: Monomer B SCF                 :      0.000u      0.000s     19.362w      2 calls
| Libint2ERI::Libint2ERI            :      0.000u      0.000s      1.198w      4 calls
| HF: Form core H                   :      0.000u      0.000s      0.412w      2 calls
| HF: Form S/X                      :      0.000u      0.000s      0.021w      2 calls
| HF: Guess                         :      0.000u      0.000s      0.325w      2 calls
| | SAD Guess                       :      0.000u      0.000s      0.320w      2 calls
| HF: Form G                        :      0.000u      0.000s     15.245w     24 calls
| | JK: D                           :      0.000u      0.000s      0.002w     24 calls
| | JK: USO2AO                      :      0.000u      0.000s      0.001w     24 calls
| | JK: JK                          :      0.000u      0.000s     15.238w     24 calls
| | | JK: J                         :      0.000u      0.000s      0.358w     24 calls
| | | | JK: J1                      :      0.000u      0.000s      0.175w     24 calls
| | | | JK: J2                      :      0.000u      0.000s      0.179w     24 calls
| | | JK: K                         :      0.000u      0.000s     14.739w     24 calls
| | | | JK: K1                      :      0.000u      0.000s     14.111w     24 calls
| | | | JK: K2                      :      0.000u      0.000s      0.628w     24 calls
| | JK: AO2USO                      :      0.000u      0.000s      0.000w     24 calls
| HF: Form F                        :      0.000u      0.000s      0.002w     24 calls
| HF: Form D                        :      0.000u      0.000s      0.001w     24 calls
| HF: DIIS                          :      0.000u      0.000s      0.218w     22 calls
| | DIISManager::add_entry          :      0.000u      0.000s      0.098w     22 calls
| | DIISManager::extrapolate        :      0.000u      0.000s      0.041w     22 calls
| | | bMatrix setup                 :      0.000u      0.000s      0.022w     22 calls
| | | bMatrix pseudoinverse         :      0.000u      0.000s      0.001w     22 calls
| | | New vector                    :      0.000u      0.000s      0.017w     22 calls
| HF: Form C                        :      0.000u      0.000s      0.145w     22 calls
SAPT0: DF Integrals                 :      0.000u      0.000s     13.193w      2 calls
| Libint2ERI::Libint2ERI            :      0.000u      0.000s      1.301w      8 calls
SAPT0: W Integrals                  :      0.000u      0.000s      0.098w      2 calls
SAPT0: Elst10                       :      0.000u      0.000s      0.000w      2 calls
SAPT0: Exch10                       :      0.000u      0.000s      0.039w      2 calls
SAPT0: Exch10 S^2                   :      0.000u      0.000s      0.029w      2 calls
SAPT0: Ind20                        :      0.000u      0.000s      8.377w      2 calls
SAPT0: Exch-Ind20                   :      0.000u      0.000s      0.359w      2 calls
SAPT0: Exch-Disp20 N^5              :      0.000u      0.000s      2.122w      2 calls
SAPT0: Exch-Disp20 N^4              :      0.000u      0.000s      5.455w      2 calls

**************************************************************************************

Host: G5

Timers On : Sun May 21 13:37:40 2023
Timers Off: Sun May 21 13:38:44 2023

Wall Time:       64.14 seconds

                                                       Time (seconds)
Module                                       User      System        Wall        Calls
SAPT: Dimer SCF                     :      0.000u      0.000s     14.895w      1 calls
Libint2ERI::Libint2ERI              :      0.000u      0.000s      0.572w     11 calls
JK: (A|mn)                          :      0.000u      0.000s      0.745w      1 calls
JK: (A|Q)^-1/2                      :      0.000u      0.000s      0.342w      1 calls
JK: (Q|mn)                          :      0.000u      0.000s      0.777w      1 calls
HF: Form core H                     :      0.000u      0.000s      0.482w      3 calls
HF: Form S/X                        :      0.000u      0.000s      0.022w      3 calls
HF: Guess                           :      0.000u      0.000s      0.216w      3 calls
SAD Guess                           :      0.000u      0.000s      0.211w      3 calls
HF: Form G                          :      0.000u      0.000s     21.348w     47 calls
JK: D                               :      0.000u      0.000s      0.004w     47 calls
JK: USO2AO                          :      0.000u      0.000s      0.002w     47 calls
JK: JK                              :      0.000u      0.000s     21.334w     47 calls
JK: J                               :      0.000u      0.000s      0.697w     47 calls
JK: J1                              :      0.000u      0.000s      0.358w     47 calls
JK: J2                              :      0.000u      0.000s      0.331w     47 calls
JK: K                               :      0.000u      0.000s     20.220w     47 calls
JK: K1                              :      0.000u      0.000s     17.968w     47 calls
JK: K2                              :      0.000u      0.000s      2.251w     47 calls
JK: AO2USO                          :      0.000u      0.000s      0.000w     47 calls
HF: Form F                          :      0.000u      0.000s      0.003w     47 calls
HF: Form D                          :      0.000u      0.000s      0.003w     47 calls
HF: DIIS                            :      0.000u      0.000s      0.300w     44 calls
DIISManager::add_entry              :      0.000u      0.000s      0.091w     44 calls
DIISManager::extrapolate            :      0.000u      0.000s      0.083w     44 calls
bMatrix setup                       :      0.000u      0.000s      0.044w     44 calls
bMatrix pseudoinverse               :      0.000u      0.000s      0.002w     44 calls
New vector                          :      0.000u      0.000s      0.036w     44 calls
HF: Form C                          :      0.000u      0.000s      0.285w     44 calls
SAPT: Monomer A SCF                 :      0.000u      0.000s      7.219w      1 calls
SAPT: Monomer B SCF                 :      0.000u      0.000s      5.816w      1 calls
SAPT0: DF Integrals                 :      0.000u      0.000s      7.091w      1 calls
SAPT0: W Integrals                  :      0.000u      0.000s      0.032w      1 calls
SAPT0: Elst10                       :      0.000u      0.000s      0.001w      1 calls
SAPT0: Exch10                       :      0.000u      0.000s      0.020w      1 calls
SAPT0: Exch10 S^2                   :      0.000u      0.000s      0.009w      1 calls
SAPT0: Ind20                        :      0.000u      0.000s      4.234w      1 calls
SAPT0: Exch-Ind20                   :      0.000u      0.000s      0.179w      1 calls
SAPT0: Exch-Disp20 N^5              :      0.000u      0.000s      1.004w      1 calls
SAPT0: Exch-Disp20 N^4              :      0.000u      0.000s      3.269w      1 calls

--------------------------------------------------------------------------------------
SAPT: Dimer SCF                     :      0.000u      0.000s     14.895w      1 calls
| Libint2ERI::Libint2ERI            :      0.000u      0.000s      0.155w      2 calls
| JK: (A|mn)                        :      0.000u      0.000s      0.745w      1 calls
| JK: (A|Q)^-1/2                    :      0.000u      0.000s      0.342w      1 calls
| | Libint2ERI::Libint2ERI          :      0.000u      0.000s      0.000w      1 calls
| JK: (Q|mn)                        :      0.000u      0.000s      0.777w      1 calls
| HF: Form core H                   :      0.000u      0.000s      0.158w      1 calls
| HF: Form S/X                      :      0.000u      0.000s      0.008w      1 calls
| HF: Guess                         :      0.000u      0.000s      0.089w      1 calls
| | SAD Guess                       :      0.000u      0.000s      0.086w      1 calls
| HF: Form G                        :      0.000u      0.000s     11.152w     23 calls
| | JK: D                           :      0.000u      0.000s      0.002w     23 calls
| | JK: USO2AO                      :      0.000u      0.000s      0.001w     23 calls
| | JK: JK                          :      0.000u      0.000s     11.145w     23 calls
| | | JK: J                         :      0.000u      0.000s      0.338w     23 calls
| | | | JK: J1                      :      0.000u      0.000s      0.171w     23 calls
| | | | JK: J2                      :      0.000u      0.000s      0.163w     23 calls
| | | JK: K                         :      0.000u      0.000s     10.543w     23 calls
| | | | JK: K1                      :      0.000u      0.000s      9.122w     23 calls
| | | | JK: K2                      :      0.000u      0.000s      1.421w     23 calls
| | JK: AO2USO                      :      0.000u      0.000s      0.000w     23 calls
| HF: Form F                        :      0.000u      0.000s      0.002w     23 calls
| HF: Form D                        :      0.000u      0.000s      0.002w     23 calls
| HF: DIIS                          :      0.000u      0.000s      0.156w     22 calls
| | DIISManager::add_entry          :      0.000u      0.000s      0.046w     22 calls
| | DIISManager::extrapolate        :      0.000u      0.000s      0.047w     22 calls
| | | bMatrix setup                 :      0.000u      0.000s      0.025w     22 calls
| | | bMatrix pseudoinverse         :      0.000u      0.000s      0.001w     22 calls
| | | New vector                    :      0.000u      0.000s      0.021w     22 calls
| HF: Form C                        :      0.000u      0.000s      0.142w     22 calls
SAPT: Monomer A SCF                 :      0.000u      0.000s      7.219w      1 calls
| Libint2ERI::Libint2ERI            :      0.000u      0.000s      0.133w      2 calls
| HF: Form core H                   :      0.000u      0.000s      0.162w      1 calls
| HF: Form S/X                      :      0.000u      0.000s      0.007w      1 calls
| HF: Guess                         :      0.000u      0.000s      0.063w      1 calls
| | SAD Guess                       :      0.000u      0.000s      0.061w      1 calls
| HF: Form G                        :      0.000u      0.000s      5.826w     13 calls
| | JK: D                           :      0.000u      0.000s      0.001w     13 calls
| | JK: USO2AO                      :      0.000u      0.000s      0.001w     13 calls
| | JK: JK                          :      0.000u      0.000s      5.822w     13 calls
| | | JK: J                         :      0.000u      0.000s      0.189w     13 calls
| | | | JK: J1                      :      0.000u      0.000s      0.097w     13 calls
| | | | JK: J2                      :      0.000u      0.000s      0.089w     13 calls
| | | JK: K                         :      0.000u      0.000s      5.520w     13 calls
| | | | JK: K1                      :      0.000u      0.000s      4.907w     13 calls
| | | | JK: K2                      :      0.000u      0.000s      0.613w     13 calls
| | JK: AO2USO                      :      0.000u      0.000s      0.000w     13 calls
| HF: Form F                        :      0.000u      0.000s      0.001w     13 calls
| HF: Form D                        :      0.000u      0.000s      0.001w     13 calls
| HF: DIIS                          :      0.000u      0.000s      0.060w     12 calls
| | DIISManager::add_entry          :      0.000u      0.000s      0.006w     12 calls
| | DIISManager::extrapolate        :      0.000u      0.000s      0.021w     12 calls
| | | bMatrix setup                 :      0.000u      0.000s      0.011w     12 calls
| | | bMatrix pseudoinverse         :      0.000u      0.000s      0.001w     12 calls
| | | New vector                    :      0.000u      0.000s      0.009w     12 calls
| HF: Form C                        :      0.000u      0.000s      0.076w     12 calls
SAPT: Monomer B SCF                 :      0.000u      0.000s      5.816w      1 calls
| Libint2ERI::Libint2ERI            :      0.000u      0.000s      0.134w      2 calls
[...]
JK: AO2USO                          :      0.000u      0.000s      0.006w   7162 calls
HF: Form F                          :      0.000u      0.000s      0.180w   7162 calls
HF: Form D                          :      0.000u      0.000s      0.120w   7162 calls
HF: DIIS                            :      0.000u      0.000s     58.989w   6792 calls
HF: Form C                          :      0.000u      0.000s      7.096w   6792 calls
Grad: V T Perturb                   :      0.000u      0.000s      3.100w    365 calls
Grad: S                             :      0.000u      0.000s      0.346w    365 calls
Grad: JK                            :      0.000u      0.000s    194.296w    365 calls
JKGrad: Amn                         :      0.000u      0.000s     54.009w    365 calls
JKGrad: Awmn                        :      0.000u      0.000s      0.000w    365 calls
JKGrad: AB                          :      0.000u      0.000s     42.940w    365 calls
JKGrad: UV                          :      0.000u      0.000s      4.933w    365 calls
JKGrad: ABx                         :      0.000u      0.000s      7.627w    365 calls
JKGrad: Amnx                        :      0.000u      0.000s     82.138w    365 calls
Grad: XC                            :      0.000u      0.000s    628.086w    365 calls
V_xc gradient                       :      0.000u      0.000s    138.794w 768995 calls

--------------------------------------------------------------------------------------
V: Grid                             :      0.000u      0.000s    246.300w    370 calls
| build grid                        :      0.000u      0.000s    206.171w    370 calls
| post-process grid                 :      0.000u      0.000s     40.036w    370 calls
DFH: sparsity prep                  :      0.000u      0.000s      5.499w    370 calls
| Libint2ERI::Libint2ERI            :      0.000u      0.000s      3.565w    370 calls
DFH: initialize()                   :      0.000u      0.000s    108.988w    370 calls
| Libint2ERI::Libint2ERI            :      0.000u      0.000s      3.363w    740 calls
| DFH: AO Construction              :      0.000u      0.000s     36.157w    370 calls
| DFH: AO-Met. Contraction          :      0.000u      0.000s     21.029w    370 calls
HF: Form core H                     :      0.000u      0.000s     12.348w    370 calls
HF: Form S/X                        :      0.000u      0.000s      0.316w    370 calls
HF: Guess                           :      0.000u      0.000s     31.730w    370 calls
| SAD Guess                         :      0.000u      0.000s     31.228w    370 calls
HF: Form G                          :      0.000u      0.000s   5373.397w   7162 calls
| RV: Form V                        :      0.000u      0.000s   5279.333w   7162 calls
| | Properties                      :      0.000u      0.000s    867.678w 15095978 calls
| | Functional                      :      0.000u      0.000s   3397.955w 15095978 calls
| | V_xc                            :      0.000u      0.000s    967.601w 15095978 calls
| JK: D                             :      0.000u      0.000s      0.130w   7162 calls
| JK: USO2AO                        :      0.000u      0.000s      0.016w   7162 calls
| JK: JK                            :      0.000u      0.000s     93.271w   7162 calls
| | DFH: compute_JK()               :      0.000u      0.000s     93.184w   7162 calls
| | | DFH: Grabbing AOs             :      0.000u      0.000s      0.009w   7162 calls
| | | DFH: compute_J                :      0.000u      0.000s     18.470w   7162 calls
| | | DFH: compute_K                :      0.000u      0.000s     62.384w   7162 calls
| JK: AO2USO                        :      0.000u      0.000s      0.006w   7162 calls
HF: Form F                          :      0.000u      0.000s      0.180w   7162 calls
HF: Form D                          :      0.000u      0.000s      0.120w   7162 calls
HF: DIIS                            :      0.000u      0.000s     58.989w   6792 calls
HF: Form C                          :      0.000u      0.000s      7.096w   6792 calls
Grad: V T Perturb                   :      0.000u      0.000s      3.100w    365 calls
Grad: S                             :      0.000u      0.000s      0.346w    365 calls
Grad: JK                            :      0.000u      0.000s    194.296w    365 calls
| JKGrad: Amn                       :      0.000u      0.000s     54.009w    365 calls
| | Libint2ERI::Libint2ERI          :      0.000u      0.000s      3.496w    365 calls
| JKGrad: Awmn                      :      0.000u      0.000s      0.000w    365 calls
| JKGrad: AB                        :      0.000u      0.000s     42.940w    365 calls
| | Libint2ERI::Libint2ERI          :      0.000u      0.000s      0.059w    365 calls
| JKGrad: UV                        :      0.000u      0.000s      4.933w    365 calls
| JKGrad: ABx                       :      0.000u      0.000s      7.627w    365 calls
| | Libint2ERI::Libint2ERI          :      0.000u      0.000s      0.060w    365 calls
| JKGrad: Amnx                      :      0.000u      0.000s     82.138w    365 calls
| | Libint2ERI::Libint2ERI          :      0.000u      0.000s      3.269w    365 calls
Grad: XC                            :      0.000u      0.000s    628.086w    365 calls
| Properties                        :      0.000u      0.000s    312.444w 768995 calls
| Functional                        :      0.000u      0.000s    173.640w 768995 calls
| V_xc gradient                     :      0.000u      0.000s    138.794w 768995 calls

**************************************************************************************

Host: G5

Timers On : Thu May  9 22:38:25 2024
Timers Off: Thu May  9 22:49:37 2024

Wall Time:      672.03 seconds

                                                       Time (seconds)
Module                                       User      System        Wall        Calls
V: Grid                             :      0.000u      0.000s     16.611w     28 calls
build grid                          :      0.000u      0.000s     14.067w     28 calls
post-process grid                   :      0.000u      0.000s      2.538w     28 calls
DFH: sparsity prep                  :      0.000u      0.000s      0.342w     28 calls
Libint2ERI::Libint2ERI              :      0.000u      0.000s      0.423w     84 calls
DFH: initialize()                   :      0.000u      0.000s      6.666w     28 calls
DFH: AO Construction                :      0.000u      0.000s      2.328w     28 calls
DFH: AO-Met. Contraction            :      0.000u      0.000s      1.255w     28 calls
HF: Form core H                     :      0.000u      0.000s      0.521w     28 calls
HF: Form S/X                        :      0.000u      0.000s      0.022w     28 calls
HF: Guess                           :      0.000u      0.000s      2.314w     28 calls
SAD Guess                           :      0.000u      0.000s      2.284w     28 calls
HF: Form G                          :      0.000u      0.000s    203.815w    344 calls
RV: Form V                          :      0.000u      0.000s    200.376w    344 calls
Properties                          :      0.000u      0.000s     30.674w 716990 calls
Functional                          :      0.000u      0.000s    133.536w 716990 calls
V_xc                                :      0.000u      0.000s     34.732w 716990 calls
JK: D                               :      0.000u      0.000s      0.005w    344 calls
JK: USO2AO                          :      0.000u      0.000s      0.001w    344 calls
JK: JK                              :      0.000u      0.000s      3.380w    344 calls
DFH: compute_JK()                   :      0.000u      0.000s      3.378w    344 calls
DFH: Grabbing AOs                   :      0.000u      0.000s      0.000w    344 calls
DFH: compute_J                      :      0.000u      0.000s      0.601w    344 calls
DFH: compute_K                      :      0.000u      0.000s      2.277w    344 calls
JK: AO2USO                          :      0.000u      0.000s      0.000w    344 calls
HF: Form F                          :      0.000u      0.000s      0.006w    344 calls
HF: Form D                          :      0.000u      0.000s      0.004w    344 calls
HF: DIIS                            :      0.000u      0.000s      3.352w    316 calls
HF: Form C                          :      0.000u      0.000s      0.256w    316 calls

--------------------------------------------------------------------------------------
V: Grid                             :      0.000u      0.000s     16.611w     28 calls
| build grid                        :      0.000u      0.000s     14.067w     28 calls
| post-process grid                 :      0.000u      0.000s      2.538w     28 calls
DFH: sparsity prep                  :      0.000u      0.000s      0.342w     28 calls
| Libint2ERI::Libint2ERI            :      0.000u      0.000s      0.226w     28 calls
DFH: initialize()                   :      0.000u      0.000s      6.666w     28 calls
| Libint2ERI::Libint2ERI            :      0.000u      0.000s      0.197w     56 calls
| DFH: AO Construction              :      0.000u      0.000s      2.328w     28 calls
| DFH: AO-Met. Contraction          :      0.000u      0.000s      1.255w     28 calls
HF: Form core H                     :      0.000u      0.000s      0.521w     28 calls
HF: Form S/X                        :      0.000u      0.000s      0.022w     28 calls
HF: Guess                           :      0.000u      0.000s      2.314w     28 calls
| SAD Guess                         :      0.000u      0.000s      2.284w     28 calls
HF: Form G                          :      0.000u      0.000s    203.815w    344 calls
| RV: Form V                        :      0.000u      0.000s    200.376w    344 calls
| | Properties                      :      0.000u      0.000s     30.674w 716990 calls
| | Functional                      :      0.000u      0.000s    133.536w 716990 calls
| | V_xc                            :      0.000u      0.000s     34.732w 716990 calls
| JK: D                             :      0.000u      0.000s      0.005w    344 calls
| JK: USO2AO                        :      0.000u      0.000s      0.001w    344 calls
| JK: JK                            :      0.000u      0.000s      3.380w    344 calls
| | DFH: compute_JK()               :      0.000u      0.000s      3.378w    344 calls
| | | DFH: Grabbing AOs             :      0.000u      0.000s      0.000w    344 calls
| | | DFH: compute_J                :      0.000u      0.000s      0.601w    344 calls
| | | DFH: compute_K                :      0.000u      0.000s      2.277w    344 calls
| JK: AO2USO                        :      0.000u      0.000s      0.000w    344 calls
HF: Form F                          :      0.000u      0.000s      0.006w    344 calls
HF: Form D                          :      0.000u      0.000s      0.004w    344 calls
HF: DIIS                            :      0.000u      0.000s      3.352w    316 calls
HF: Form C                          :      0.000u      0.000s      0.256w    316 calls

**************************************************************************************

Host: G5

Timers On : Fri May 10 16:09:09 2024
Timers Off: Fri May 10 16:09:10 2024

Wall Time:        1.17 seconds

                                                       Time (seconds)
Module                                       User      System        Wall        Calls

--------------------------------------------------------------------------------------

**************************************************************************************

Host: G5

Timers On : Fri May 10 16:08:52 2024
Timers Off: Sat May 11 21:25:55 2024

Wall Time:   105426.33 seconds

                                                       Time (seconds)
Module                                       User      System        Wall        Calls
V: Grid                             :      0.000u      0.000s    229.652w    370 calls
build grid                          :      0.000u      0.000s    194.866w    370 calls
post-process grid                   :      0.000u      0.000s     34.705w    370 calls
DFH: sparsity prep                  :      0.000u      0.000s      5.238w    370 calls
Libint2ERI::Libint2ERI              :      0.000u      0.000s     12.678w   2570 calls
DFH: initialize()                   :      0.000u      0.000s    101.550w    370 calls
DFH: AO Construction                :      0.000u      0.000s     33.585w    370 calls
DFH: AO-Met. Contraction            :      0.000u      0.000s     17.950w    370 calls
HF: Form core H                     :      0.000u      0.000s      9.018w    370 calls
HF: Form S/X                        :      0.000u      0.000s      0.332w    370 calls
HF: Guess                           :      0.000u      0.000s     30.000w    370 calls
SAD Guess                           :      0.000u      0.000s     29.517w    370 calls
HF: Form G                          :      0.000u      0.000s 103646.800w   7214 calls
RV: Form V                          :      0.000u      0.000s 103567.814w   7214 calls
Properties                          :      0.000u      0.000s    961.631w 15988883 calls
Functional                          :      0.000u      0.000s   6832.608w 15988883 calls
V_xc                                :      0.000u      0.000s  96148.424w 15218826 calls
JK: D                               :      0.000u      0.000s      0.108w   7214 calls
JK: USO2AO                          :      0.000u      0.000s      0.013w   7214 calls
JK: JK                              :      0.000u      0.000s     78.363w   7214 calls
DFH: compute_JK()                   :      0.000u      0.000s     78.293w   7214 calls
DFH: Grabbing AOs                   :      0.000u      0.000s      0.006w   7214 calls
DFH: compute_J                      :      0.000u      0.000s     13.798w   7214 calls
DFH: compute_K                      :      0.000u      0.000s     52.450w   7214 calls
JK: AO2USO                          :      0.000u      0.000s      0.005w   7214 calls
HF: Form F                          :      0.000u      0.000s      0.134w   7214 calls
HF: Form D                          :      0.000u      0.000s      0.096w   7214 calls
HF: DIIS                            :      0.000u      0.000s     48.805w   6844 calls
HF: Form C                          :      0.000u      0.000s      6.309w   6844 calls
Grad: V T Perturb                   :      0.000u      0.000s      2.775w    365 calls
Grad: S                             :      0.000u      0.000s      0.294w    365 calls
Grad: JK                            :      0.000u      0.000s    177.382w    365 calls
JKGrad: Amn                         :      0.000u      0.000s     49.175w    365 calls
JKGrad: Awmn                        :      0.000u      0.000s      0.000w    365 calls
JKGrad: AB                          :      0.000u      0.000s     38.329w    365 calls
JKGrad: UV                          :      0.000u      0.000s      4.433w    365 calls
JKGrad: ABx                         :      0.000u      0.000s      6.970w    365 calls
JKGrad: Amnx                        :      0.000u      0.000s     76.214w    365 calls
Grad: XC                            :      0.000u      0.000s    542.355w    365 calls
V_xc gradient                       :      0.000u      0.000s    126.787w 770057 calls

--------------------------------------------------------------------------------------
V: Grid                             :      0.000u      0.000s    229.652w    370 calls
| build grid                        :      0.000u      0.000s    194.866w    370 calls
| post-process grid                 :      0.000u      0.000s     34.705w    370 calls
DFH: sparsity prep                  :      0.000u      0.000s      5.238w    370 calls
| Libint2ERI::Libint2ERI            :      0.000u      0.000s      3.419w    370 calls
DFH: initialize()                   :      0.000u      0.000s    101.550w    370 calls
| Libint2ERI::Libint2ERI            :      0.000u      0.000s      3.130w    740 calls
| DFH: AO Construction              :      0.000u      0.000s     33.585w    370 calls
| DFH: AO-Met. Contraction          :      0.000u      0.000s     17.950w    370 calls
HF: Form core H                     :      0.000u      0.000s      9.018w    370 calls
HF: Form S/X                        :      0.000u      0.000s      0.332w    370 calls
HF: Guess                           :      0.000u      0.000s     30.000w    370 calls
| SAD Guess                         :      0.000u      0.000s     29.517w    370 calls
HF: Form G                          :      0.000u      0.000s 103646.800w   7214 calls
| RV: Form V                        :      0.000u      0.000s 103567.814w   7214 calls
| | Properties                      :      0.000u      0.000s    709.484w 15218826 calls
| | Functional                      :      0.000u      0.000s   6671.892w 15218826 calls
| | V_xc                            :      0.000u      0.000s  96148.424w 15218826 calls
| JK: D                             :      0.000u      0.000s      0.108w   7214 calls
| JK: USO2AO                        :      0.000u      0.000s      0.013w   7214 calls
| JK: JK                            :      0.000u      0.000s     78.363w   7214 calls
| | DFH: compute_JK()               :      0.000u      0.000s     78.293w   7214 calls
| | | DFH: Grabbing AOs             :      0.000u      0.000s      0.006w   7214 calls
| | | DFH: compute_J                :      0.000u      0.000s     13.798w   7214 calls
| | | DFH: compute_K                :      0.000u      0.000s     52.450w   7214 calls
| JK: AO2USO                        :      0.000u      0.000s      0.005w   7214 calls
HF: Form F                          :      0.000u      0.000s      0.134w   7214 calls
HF: Form D                          :      0.000u      0.000s      0.096w   7214 calls
HF: DIIS                            :      0.000u      0.000s     48.805w   6844 calls
HF: Form C                          :      0.000u      0.000s      6.309w   6844 calls
Grad: V T Perturb                   :      0.000u      0.000s      2.775w    365 calls
Grad: S                             :      0.000u      0.000s      0.294w    365 calls
Grad: JK                            :      0.000u      0.000s    177.382w    365 calls
| JKGrad: Amn                       :      0.000u      0.000s     49.175w    365 calls
| | Libint2ERI::Libint2ERI          :      0.000u      0.000s      3.024w    365 calls
| JKGrad: Awmn                      :      0.000u      0.000s      0.000w    365 calls
| JKGrad: AB                        :      0.000u      0.000s     38.329w    365 calls
| | Libint2ERI::Libint2ERI          :      0.000u      0.000s      0.053w    365 calls
| JKGrad: UV                        :      0.000u      0.000s      4.433w    365 calls
| JKGrad: ABx                       :      0.000u      0.000s      6.970w    365 calls
| | Libint2ERI::Libint2ERI          :      0.000u      0.000s      0.049w    365 calls
| JKGrad: Amnx                      :      0.000u      0.000s     76.214w    365 calls
| | Libint2ERI::Libint2ERI          :      0.000u      0.000s      3.003w    365 calls
Grad: XC                            :      0.000u      0.000s    542.355w    365 calls
| Properties                        :      0.000u      0.000s    252.147w 770057 calls
| Functional                        :      0.000u      0.000s    160.716w 770057 calls
| V_xc gradient                     :      0.000u      0.000s    126.787w 770057 calls

**************************************************************************************
