
Host: G5

Timers On : Mon Jun  3 21:13:00 2024
Timers Off: Mon Jun  3 21:13:20 2024

Wall Time:       19.94 seconds

                                                       Time (seconds)
Module                                       User      System        Wall        Calls
DFH: sparsity prep                  :      0.000u      0.000s      0.058w     20 calls
Libint2ERI::Libint2ERI              :      0.000u      0.000s      0.053w     60 calls
DFH: initialize()                   :      0.000u      0.000s      0.756w     20 calls
DFH: AO Construction                :      0.000u      0.000s      0.083w     20 calls
DFH: AO-Met. Contraction            :      0.000u      0.000s      0.012w     20 calls
HF: Form core H                     :      0.000u      0.000s      0.068w     20 calls
HF: Form S/X                        :      0.000u      0.000s      0.004w     20 calls
HF: Guess                           :      0.000u      0.000s      0.782w     20 calls
SAD Guess                           :      0.000u      0.000s      0.762w     20 calls
HF: Form G                          :      0.000u      0.000s      0.033w    148 calls
JK: D                               :      0.000u      0.000s      0.001w    148 calls
JK: USO2AO                          :      0.000u      0.000s      0.003w    148 calls
JK: JK                              :      0.000u      0.000s      0.025w    148 calls
DFH: compute_JK()                   :      0.000u      0.000s      0.024w    148 calls
DFH: Grabbing AOs                   :      0.000u      0.000s      0.000w    148 calls
DFH: compute_J                      :      0.000u      0.000s      0.006w    148 calls
DFH: compute_K                      :      0.000u      0.000s      0.015w    148 calls
JK: AO2USO                          :      0.000u      0.000s      0.001w    148 calls
HF: Form F                          :      0.000u      0.000s      0.001w    148 calls
HF: Form D                          :      0.000u      0.000s      0.001w    148 calls
HF: DIIS                            :      0.000u      0.000s      0.590w    128 calls
HF: Form C                          :      0.000u      0.000s      0.061w    128 calls

--------------------------------------------------------------------------------------
DFH: sparsity prep                  :      0.000u      0.000s      0.058w     20 calls
| Libint2ERI::Libint2ERI            :      0.000u      0.000s      0.034w     20 calls
DFH: initialize()                   :      0.000u      0.000s      0.756w     20 calls
| Libint2ERI::Libint2ERI            :      0.000u      0.000s      0.020w     40 calls
| DFH: AO Construction              :      0.000u      0.000s      0.083w     20 calls
| DFH: AO-Met. Contraction          :      0.000u      0.000s      0.012w     20 calls
HF: Form core H                     :      0.000u      0.000s      0.068w     20 calls
HF: Form S/X                        :      0.000u      0.000s      0.004w     20 calls
HF: Guess                           :      0.000u      0.000s      0.782w     20 calls
| SAD Guess                         :      0.000u      0.000s      0.762w     20 calls
HF: Form G                          :      0.000u      0.000s      0.033w    148 calls
| JK: D                             :      0.000u      0.000s      0.001w    148 calls
| JK: USO2AO                        :      0.000u      0.000s      0.003w    148 calls
| JK: JK                            :      0.000u      0.000s      0.025w    148 calls
| | DFH: compute_JK()               :      0.000u      0.000s      0.024w    148 calls
| | | DFH: Grabbing AOs             :      0.000u      0.000s      0.000w    148 calls
| | | DFH: compute_J                :      0.000u      0.000s      0.006w    148 calls
| | | DFH: compute_K                :      0.000u      0.000s      0.015w    148 calls
| JK: AO2USO                        :      0.000u      0.000s      0.001w    148 calls
HF: Form F                          :      0.000u      0.000s      0.001w    148 calls
HF: Form D                          :      0.000u      0.000s      0.001w    148 calls
HF: DIIS                            :      0.000u      0.000s      0.590w    128 calls
HF: Form C                          :      0.000u      0.000s      0.061w    128 calls

**************************************************************************************

Host: G5

Timers On : Mon Jun  3 21:13:22 2024
Timers Off: Mon Jun  3 21:13:33 2024

Wall Time:       10.97 seconds

                                                       Time (seconds)
Module                                       User      System        Wall        Calls
DFH: sparsity prep                  :      0.000u      0.000s      0.028w     15 calls
Libint2ERI::Libint2ERI              :      0.000u      0.000s      0.025w     45 calls
DFH: initialize()                   :      0.000u      0.000s      0.601w     15 calls
DFH: AO Construction                :      0.000u      0.000s      0.059w     15 calls
DFH: AO-Met. Contraction            :      0.000u      0.000s      0.007w     15 calls
HF: Form core H                     :      0.000u      0.000s      0.074w     15 calls
HF: Form S/X                        :      0.000u      0.000s      0.002w     15 calls
HF: Guess                           :      0.000u      0.000s      0.526w     15 calls
SAD Guess                           :      0.000u      0.000s      0.512w     15 calls
HF: Form G                          :      0.000u      0.000s      0.058w    275 calls
JK: D                               :      0.000u      0.000s      0.002w    275 calls
JK: USO2AO                          :      0.000u      0.000s      0.005w    275 calls
JK: JK                              :      0.000u      0.000s      0.046w    275 calls
DFH: compute_JK()                   :      0.000u      0.000s      0.045w    275 calls
DFH: Grabbing AOs                   :      0.000u      0.000s      0.000w    275 calls
DFH: compute_J                      :      0.000u      0.000s      0.012w    275 calls
DFH: compute_K                      :      0.000u      0.000s      0.027w    275 calls
JK: AO2USO                          :      0.000u      0.000s      0.002w    275 calls
HF: Form F                          :      0.000u      0.000s      0.002w    275 calls
HF: Form D                          :      0.000u      0.000s      0.002w    275 calls
HF: DIIS                            :      0.000u      0.000s      1.467w    260 calls
HF: Form C                          :      0.000u      0.000s      0.123w    260 calls

--------------------------------------------------------------------------------------
DFH: sparsity prep                  :      0.000u      0.000s      0.028w     15 calls
| Libint2ERI::Libint2ERI            :      0.000u      0.000s      0.011w     15 calls
DFH: initialize()                   :      0.000u      0.000s      0.601w     15 calls
| Libint2ERI::Libint2ERI            :      0.000u      0.000s      0.014w     30 calls
| DFH: AO Construction              :      0.000u      0.000s      0.059w     15 calls
| DFH: AO-Met. Contraction          :      0.000u      0.000s      0.007w     15 calls
HF: Form core H                     :      0.000u      0.000s      0.074w     15 calls
HF: Form S/X                        :      0.000u      0.000s      0.002w     15 calls
HF: Guess                           :      0.000u      0.000s      0.526w     15 calls
| SAD Guess                         :      0.000u      0.000s      0.512w     15 calls
HF: Form G                          :      0.000u      0.000s      0.058w    275 calls
| JK: D                             :      0.000u      0.000s      0.002w    275 calls
| JK: USO2AO                        :      0.000u      0.000s      0.005w    275 calls
| JK: JK                            :      0.000u      0.000s      0.046w    275 calls
| | DFH: compute_JK()               :      0.000u      0.000s      0.045w    275 calls
| | | DFH: Grabbing AOs             :      0.000u      0.000s      0.000w    275 calls
| | | DFH: compute_J                :      0.000u      0.000s      0.012w    275 calls
| | | DFH: compute_K                :      0.000u      0.000s      0.027w    275 calls
| JK: AO2USO                        :      0.000u      0.000s      0.002w    275 calls
HF: Form F                          :      0.000u      0.000s      0.002w    275 calls
HF: Form D                          :      0.000u      0.000s      0.002w    275 calls
HF: DIIS                            :      0.000u      0.000s      1.467w    260 calls
HF: Form C                          :      0.000u      0.000s      0.123w    260 calls

**************************************************************************************

Host: G5

Timers On : Mon Jun  3 21:13:35 2024
Timers Off: Mon Jun  3 21:14:02 2024

Wall Time:       26.40 seconds

                                                       Time (seconds)
Module                                       User      System        Wall        Calls
DFH: sparsity prep                  :      0.000u      0.000s      0.041w     20 calls
Libint2ERI::Libint2ERI              :      0.000u      0.000s      0.036w     60 calls
DFH: initialize()                   :      0.000u      0.000s      1.059w     20 calls
DFH: AO Construction                :      0.000u      0.000s      0.086w     20 calls
DFH: AO-Met. Contraction            :      0.000u      0.000s      0.012w     20 calls
HF: Form core H                     :      0.000u      0.000s      0.164w     20 calls
HF: Form S/X                        :      0.000u      0.000s      0.004w     20 calls
HF: Guess                           :      0.000u      0.000s      1.105w     20 calls
SAD Guess                           :      0.000u      0.000s      1.082w     20 calls
HF: Form G                          :      0.000u      0.000s      0.094w    423 calls
JK: D                               :      0.000u      0.000s      0.004w    423 calls
JK: USO2AO                          :      0.000u      0.000s      0.001w    423 calls
JK: JK                              :      0.000u      0.000s      0.081w    423 calls
DFH: compute_JK()                   :      0.000u      0.000s      0.080w    423 calls
DFH: Grabbing AOs                   :      0.000u      0.000s      0.000w    423 calls
DFH: compute_J                      :      0.000u      0.000s      0.022w    423 calls
DFH: compute_K                      :      0.000u      0.000s      0.047w    423 calls
JK: AO2USO                          :      0.000u      0.000s      0.000w    423 calls
HF: Form F                          :      0.000u      0.000s      0.005w    423 calls
HF: Form D                          :      0.000u      0.000s      0.003w    423 calls
HF: DIIS                            :      0.000u      0.000s      2.320w    403 calls
HF: Form C                          :      0.000u      0.000s      0.229w    403 calls

--------------------------------------------------------------------------------------
DFH: sparsity prep                  :      0.000u      0.000s      0.041w     20 calls
| Libint2ERI::Libint2ERI            :      0.000u      0.000s      0.015w     20 calls
DFH: initialize()                   :      0.000u      0.000s      1.059w     20 calls
| Libint2ERI::Libint2ERI            :      0.000u      0.000s      0.021w     40 calls
| DFH: AO Construction              :      0.000u      0.000s      0.086w     20 calls
| DFH: AO-Met. Contraction          :      0.000u      0.000s      0.012w     20 calls
HF: Form core H                     :      0.000u      0.000s      0.164w     20 calls
HF: Form S/X                        :      0.000u      0.000s      0.004w     20 calls
HF: Guess                           :      0.000u      0.000s      1.105w     20 calls
| SAD Guess                         :      0.000u      0.000s      1.082w     20 calls
HF: Form G                          :      0.000u      0.000s      0.094w    423 calls
| JK: D                             :      0.000u      0.000s      0.004w    423 calls
| JK: USO2AO                        :      0.000u      0.000s      0.001w    423 calls
| JK: JK                            :      0.000u      0.000s      0.081w    423 calls
| | DFH: compute_JK()               :      0.000u      0.000s      0.080w    423 calls
| | | DFH: Grabbing AOs             :      0.000u      0.000s      0.000w    423 calls
| | | DFH: compute_J                :      0.000u      0.000s      0.022w    423 calls
| | | DFH: compute_K                :      0.000u      0.000s      0.047w    423 calls
| JK: AO2USO                        :      0.000u      0.000s      0.000w    423 calls
HF: Form F                          :      0.000u      0.000s      0.005w    423 calls
HF: Form D                          :      0.000u      0.000s      0.003w    423 calls
HF: DIIS                            :      0.000u      0.000s      2.320w    403 calls
HF: Form C                          :      0.000u      0.000s      0.229w    403 calls

**************************************************************************************

Host: G5

Timers On : Mon Jun  3 21:14:05 2024
Timers Off: Mon Jun  3 21:14:25 2024

Wall Time:       20.29 seconds

                                                       Time (seconds)
Module                                       User      System        Wall        Calls
DFH: sparsity prep                  :      0.000u      0.000s      0.047w     20 calls
Libint2ERI::Libint2ERI              :      0.000u      0.000s      0.044w     60 calls
DFH: initialize()                   :      0.000u      0.000s      0.896w     20 calls
DFH: AO Construction                :      0.000u      0.000s      0.107w     20 calls
DFH: AO-Met. Contraction            :      0.000u      0.000s      0.015w     20 calls
HF: Form core H                     :      0.000u      0.000s      0.479w     20 calls
HF: Form S/X                        :      0.000u      0.000s      0.004w     20 calls
HF: Guess                           :      0.000u      0.000s      1.122w     20 calls
SAD Guess                           :      0.000u      0.000s      1.099w     20 calls
HF: Form G                          :      0.000u      0.000s      0.038w    147 calls
JK: D                               :      0.000u      0.000s      0.002w    147 calls
JK: USO2AO                          :      0.000u      0.000s      0.004w    147 calls
JK: JK                              :      0.000u      0.000s      0.028w    147 calls
DFH: compute_JK()                   :      0.000u      0.000s      0.028w    147 calls
DFH: Grabbing AOs                   :      0.000u      0.000s      0.000w    147 calls
DFH: compute_J                      :      0.000u      0.000s      0.008w    147 calls
DFH: compute_K                      :      0.000u      0.000s      0.016w    147 calls
JK: AO2USO                          :      0.000u      0.000s      0.001w    147 calls
HF: Form F                          :      0.000u      0.000s      0.002w    147 calls
HF: Form D                          :      0.000u      0.000s      0.001w    147 calls
HF: DIIS                            :      0.000u      0.000s      0.668w    127 calls
HF: Form C                          :      0.000u      0.000s      0.070w    127 calls

--------------------------------------------------------------------------------------
DFH: sparsity prep                  :      0.000u      0.000s      0.047w     20 calls
| Libint2ERI::Libint2ERI            :      0.000u      0.000s      0.018w     20 calls
DFH: initialize()                   :      0.000u      0.000s      0.896w     20 calls
| Libint2ERI::Libint2ERI            :      0.000u      0.000s      0.025w     40 calls
| DFH: AO Construction              :      0.000u      0.000s      0.107w     20 calls
| DFH: AO-Met. Contraction          :      0.000u      0.000s      0.015w     20 calls
HF: Form core H                     :      0.000u      0.000s      0.479w     20 calls
HF: Form S/X                        :      0.000u      0.000s      0.004w     20 calls
HF: Guess                           :      0.000u      0.000s      1.122w     20 calls
| SAD Guess                         :      0.000u      0.000s      1.099w     20 calls
HF: Form G                          :      0.000u      0.000s      0.038w    147 calls
| JK: D                             :      0.000u      0.000s      0.002w    147 calls
| JK: USO2AO                        :      0.000u      0.000s      0.004w    147 calls
| JK: JK                            :      0.000u      0.000s      0.028w    147 calls
| | DFH: compute_JK()               :      0.000u      0.000s      0.028w    147 calls
| | | DFH: Grabbing AOs             :      0.000u      0.000s      0.000w    147 calls
| | | DFH: compute_J                :      0.000u      0.000s      0.008w    147 calls
| | | DFH: compute_K                :      0.000u      0.000s      0.016w    147 calls
| JK: AO2USO                        :      0.000u      0.000s      0.001w    147 calls
HF: Form F                          :      0.000u      0.000s      0.002w    147 calls
HF: Form D                          :      0.000u      0.000s      0.001w    147 calls
HF: DIIS                            :      0.000u      0.000s      0.668w    127 calls
HF: Form C                          :      0.000u      0.000s      0.070w    127 calls

**************************************************************************************

Host: G5

Timers On : Mon Jun  3 21:14:28 2024
Timers Off: Mon Jun  3 21:17:29 2024

Wall Time:      180.47 seconds

                                                       Time (seconds)
Module                                       User      System        Wall        Calls
DFH: sparsity prep                  :      0.000u      0.000s      0.037w     20 calls
Libint2ERI::Libint2ERI              :      0.000u      0.000s      0.036w     60 calls
DFH: initialize()                   :      0.000u      0.000s      0.714w     20 calls
DFH: AO Construction                :      0.000u      0.000s      0.077w     20 calls
DFH: AO-Met. Contraction            :      0.000u      0.000s      0.011w     20 calls
HF: Form core H                     :      0.000u      0.000s      0.149w     20 calls
HF: Form S/X                        :      0.000u      0.000s      0.003w     20 calls
HF: Guess                           :      0.000u      0.000s      0.889w     20 calls
SAD Guess                           :      0.000u      0.000s      0.870w     20 calls
HF: Form G                          :      0.000u      0.000s      0.062w    335 calls
JK: D                               :      0.000u      0.000s      0.002w    335 calls
JK: USO2AO                          :      0.000u      0.000s      0.000w    335 calls
JK: JK                              :      0.000u      0.000s      0.055w    335 calls
DFH: compute_JK()                   :      0.000u      0.000s      0.054w    335 calls
DFH: Grabbing AOs                   :      0.000u      0.000s      0.000w    335 calls
DFH: compute_J                      :      0.000u      0.000s      0.014w    335 calls
DFH: compute_K                      :      0.000u      0.000s      0.033w    335 calls
JK: AO2USO                          :      0.000u      0.000s      0.000w    335 calls
HF: Form F                          :      0.000u      0.000s      0.003w    335 calls
HF: Form D                          :      0.000u      0.000s      0.002w    335 calls
HF: DIIS                            :      0.000u      0.000s      1.374w    315 calls
HF: Form C                          :      0.000u      0.000s      0.150w    315 calls

--------------------------------------------------------------------------------------
DFH: sparsity prep                  :      0.000u      0.000s      0.037w     20 calls
| Libint2ERI::Libint2ERI            :      0.000u      0.000s      0.014w     20 calls
DFH: initialize()                   :      0.000u      0.000s      0.714w     20 calls
| Libint2ERI::Libint2ERI            :      0.000u      0.000s      0.021w     40 calls
| DFH: AO Construction              :      0.000u      0.000s      0.077w     20 calls
| DFH: AO-Met. Contraction          :      0.000u      0.000s      0.011w     20 calls
HF: Form core H                     :      0.000u      0.000s      0.149w     20 calls
HF: Form S/X                        :      0.000u      0.000s      0.003w     20 calls
HF: Guess                           :      0.000u      0.000s      0.889w     20 calls
| SAD Guess                         :      0.000u      0.000s      0.870w     20 calls
HF: Form G                          :      0.000u      0.000s      0.062w    335 calls
| JK: D                             :      0.000u      0.000s      0.002w    335 calls
| JK: USO2AO                        :      0.000u      0.000s      0.000w    335 calls
| JK: JK                            :      0.000u      0.000s      0.055w    335 calls
| | DFH: compute_JK()               :      0.000u      0.000s      0.054w    335 calls
| | | DFH: Grabbing AOs             :      0.000u      0.000s      0.000w    335 calls
| | | DFH: compute_J                :      0.000u      0.000s      0.014w    335 calls
| | | DFH: compute_K                :      0.000u      0.000s      0.033w    335 calls
| JK: AO2USO                        :      0.000u      0.000s      0.000w    335 calls
HF: Form F                          :      0.000u      0.000s      0.003w    335 calls
HF: Form D                          :      0.000u      0.000s      0.002w    335 calls
HF: DIIS                            :      0.000u      0.000s      1.374w    315 calls
HF: Form C                          :      0.000u      0.000s      0.150w    315 calls

**************************************************************************************

Host: G5

Timers On : Mon Jun  3 21:17:33 2024
Timers Off: Mon Jun  3 21:18:08 2024

Wall Time:       34.92 seconds

                                                       Time (seconds)
Module                                       User      System        Wall        Calls
DFH: sparsity prep                  :      0.000u      0.000s      0.036w     20 calls
Libint2ERI::Libint2ERI              :      0.000u      0.000s      0.033w     60 calls
DFH: initialize()                   :      0.000u      0.000s      0.861w     20 calls
DFH: AO Construction                :      0.000u      0.000s      0.078w     20 calls
DFH: AO-Met. Contraction            :      0.000u      0.000s      0.011w     20 calls
HF: Form core H                     :      0.000u      0.000s      0.426w     20 calls
HF: Form S/X                        :      0.000u      0.000s      0.004w     20 calls
HF: Guess                           :      0.000u      0.000s      1.116w     20 calls
SAD Guess                           :      0.000u      0.000s      1.096w     20 calls
HF: Form G                          :      0.000u      0.000s      0.056w    272 calls
JK: D                               :      0.000u      0.000s      0.002w    272 calls
JK: USO2AO                          :      0.000u      0.000s      0.005w    272 calls
JK: JK                              :      0.000u      0.000s      0.044w    272 calls
DFH: compute_JK()                   :      0.000u      0.000s      0.044w    272 calls
DFH: Grabbing AOs                   :      0.000u      0.000s      0.000w    272 calls
DFH: compute_J                      :      0.000u      0.000s      0.011w    272 calls
DFH: compute_K                      :      0.000u      0.000s      0.027w    272 calls
JK: AO2USO                          :      0.000u      0.000s      0.002w    272 calls
HF: Form F                          :      0.000u      0.000s      0.002w    272 calls
HF: Form D                          :      0.000u      0.000s      0.002w    272 calls
HF: DIIS                            :      0.000u      0.000s      1.254w    252 calls
HF: Form C                          :      0.000u      0.000s      0.119w    252 calls

--------------------------------------------------------------------------------------
DFH: sparsity prep                  :      0.000u      0.000s      0.036w     20 calls
| Libint2ERI::Libint2ERI            :      0.000u      0.000s      0.014w     20 calls
DFH: initialize()                   :      0.000u      0.000s      0.861w     20 calls
| Libint2ERI::Libint2ERI            :      0.000u      0.000s      0.019w     40 calls
| DFH: AO Construction              :      0.000u      0.000s      0.078w     20 calls
| DFH: AO-Met. Contraction          :      0.000u      0.000s      0.011w     20 calls
HF: Form core H                     :      0.000u      0.000s      0.426w     20 calls
HF: Form S/X                        :      0.000u      0.000s      0.004w     20 calls
HF: Guess                           :      0.000u      0.000s      1.116w     20 calls
| SAD Guess                         :      0.000u      0.000s      1.096w     20 calls
HF: Form G                          :      0.000u      0.000s      0.056w    272 calls
| JK: D                             :      0.000u      0.000s      0.002w    272 calls
| JK: USO2AO                        :      0.000u      0.000s      0.005w    272 calls
| JK: JK                            :      0.000u      0.000s      0.044w    272 calls
| | DFH: compute_JK()               :      0.000u      0.000s      0.044w    272 calls
| | | DFH: Grabbing AOs             :      0.000u      0.000s      0.000w    272 calls
| | | DFH: compute_J                :      0.000u      0.000s      0.011w    272 calls
| | | DFH: compute_K                :      0.000u      0.000s      0.027w    272 calls
| JK: AO2USO                        :      0.000u      0.000s      0.002w    272 calls
HF: Form F                          :      0.000u      0.000s      0.002w    272 calls
HF: Form D                          :      0.000u      0.000s      0.002w    272 calls
HF: DIIS                            :      0.000u      0.000s      1.254w    252 calls
HF: Form C                          :      0.000u      0.000s      0.119w    252 calls

**************************************************************************************

Host: G5

Timers On : Mon Jun  3 21:18:10 2024
Timers Off: Mon Jun  3 21:19:13 2024

Wall Time:       62.15 seconds

                                                       Time (seconds)
Module                                       User      System        Wall        Calls
DFH: sparsity prep                  :      0.000u      0.000s      0.037w     20 calls
Libint2ERI::Libint2ERI              :      0.000u      0.000s      0.035w     60 calls
DFH: initialize()                   :      0.000u      0.000s      1.163w     20 calls
DFH: AO Construction                :      0.000u      0.000s      0.087w     20 calls
DFH: AO-Met. Contraction            :      0.000u      0.000s      0.011w     20 calls
HF: Form core H                     :      0.000u      0.000s      0.041w     20 calls
HF: Form S/X                        :      0.000u      0.000s      0.003w     20 calls
HF: Guess                           :      0.000u      0.000s      0.700w     20 calls
SAD Guess                           :      0.000u      0.000s      0.680w     20 calls
HF: Form G                          :      0.000u      0.000s      0.056w    272 calls
JK: D                               :      0.000u      0.000s      0.002w    272 calls
JK: USO2AO                          :      0.000u      0.000s      0.004w    272 calls
JK: JK                              :      0.000u      0.000s      0.044w    272 calls
DFH: compute_JK()                   :      0.000u      0.000s      0.043w    272 calls
DFH: Grabbing AOs                   :      0.000u      0.000s      0.000w    272 calls
DFH: compute_J                      :      0.000u      0.000s      0.011w    272 calls
DFH: compute_K                      :      0.000u      0.000s      0.027w    272 calls
JK: AO2USO                          :      0.000u      0.000s      0.002w    272 calls
HF: Form F                          :      0.000u      0.000s      0.002w    272 calls
HF: Form D                          :      0.000u      0.000s      0.002w    272 calls
HF: DIIS                            :      0.000u      0.000s      1.193w    252 calls
HF: Form C                          :      0.000u      0.000s      0.117w    252 calls

--------------------------------------------------------------------------------------
DFH: sparsity prep                  :      0.000u      0.000s      0.037w     20 calls
| Libint2ERI::Libint2ERI            :      0.000u      0.000s      0.015w     20 calls
DFH: initialize()                   :      0.000u      0.000s      1.163w     20 calls
| Libint2ERI::Libint2ERI            :      0.000u      0.000s      0.019w     40 calls
| DFH: AO Construction              :      0.000u      0.000s      0.087w     20 calls
| DFH: AO-Met. Contraction          :      0.000u      0.000s      0.011w     20 calls
HF: Form core H                     :      0.000u      0.000s      0.041w     20 calls
HF: Form S/X                        :      0.000u      0.000s      0.003w     20 calls
HF: Guess                           :      0.000u      0.000s      0.700w     20 calls
| SAD Guess                         :      0.000u      0.000s      0.680w     20 calls
HF: Form G                          :      0.000u      0.000s      0.056w    272 calls
| JK: D                             :      0.000u      0.000s      0.002w    272 calls
| JK: USO2AO                        :      0.000u      0.000s      0.004w    272 calls
| JK: JK                            :      0.000u      0.000s      0.044w    272 calls
| | DFH: compute_JK()               :      0.000u      0.000s      0.043w    272 calls
| | | DFH: Grabbing AOs             :      0.000u      0.000s      0.000w    272 calls
| | | DFH: compute_J                :      0.000u      0.000s      0.011w    272 calls
| | | DFH: compute_K                :      0.000u      0.000s      0.027w    272 calls
| JK: AO2USO                        :      0.000u      0.000s      0.002w    272 calls
HF: Form F                          :      0.000u      0.000s      0.002w    272 calls
HF: Form D                          :      0.000u      0.000s      0.002w    272 calls
HF: DIIS                            :      0.000u      0.000s      1.193w    252 calls
HF: Form C                          :      0.000u      0.000s      0.117w    252 calls

**************************************************************************************

Host: G5

Timers On : Mon Jun  3 21:19:15 2024
Timers Off: Mon Jun  3 21:19:33 2024

Wall Time:       18.26 seconds

                                                       Time (seconds)
Module                                       User      System        Wall        Calls
DFH: sparsity prep                  :      0.000u      0.000s      0.040w     20 calls
Libint2ERI::Libint2ERI              :      0.000u      0.000s      0.036w     60 calls
DFH: initialize()                   :      0.000u      0.000s      0.653w     20 calls
DFH: AO Construction                :      0.000u      0.000s      0.084w     20 calls
DFH: AO-Met. Contraction            :      0.000u      0.000s      0.012w     20 calls
HF: Form core H                     :      0.000u      0.000s      0.140w     20 calls
HF: Form S/X                        :      0.000u      0.000s      0.004w     20 calls
HF: Guess                           :      0.000u      0.000s      0.958w     20 calls
SAD Guess                           :      0.000u      0.000s      0.938w     20 calls
HF: Form G                          :      0.000u      0.000s      0.033w    155 calls
JK: D                               :      0.000u      0.000s      0.001w    155 calls
JK: USO2AO                          :      0.000u      0.000s      0.002w    155 calls
JK: JK                              :      0.000u      0.000s      0.026w    155 calls
DFH: compute_JK()                   :      0.000u      0.000s      0.026w    155 calls
DFH: Grabbing AOs                   :      0.000u      0.000s      0.000w    155 calls
DFH: compute_J                      :      0.000u      0.000s      0.006w    155 calls
DFH: compute_K                      :      0.000u      0.000s      0.016w    155 calls
JK: AO2USO                          :      0.000u      0.000s      0.001w    155 calls
HF: Form F                          :      0.000u      0.000s      0.001w    155 calls
HF: Form D                          :      0.000u      0.000s      0.001w    155 calls
HF: DIIS                            :      0.000u      0.000s      0.620w    135 calls
HF: Form C                          :      0.000u      0.000s      0.064w    135 calls

--------------------------------------------------------------------------------------
DFH: sparsity prep                  :      0.000u      0.000s      0.040w     20 calls
| Libint2ERI::Libint2ERI            :      0.000u      0.000s      0.015w     20 calls
DFH: initialize()                   :      0.000u      0.000s      0.653w     20 calls
| Libint2ERI::Libint2ERI            :      0.000u      0.000s      0.020w     40 calls
| DFH: AO Construction              :      0.000u      0.000s      0.084w     20 calls
| DFH: AO-Met. Contraction          :      0.000u      0.000s      0.012w     20 calls
HF: Form core H                     :      0.000u      0.000s      0.140w     20 calls
HF: Form S/X                        :      0.000u      0.000s      0.004w     20 calls
HF: Guess                           :      0.000u      0.000s      0.958w     20 calls
| SAD Guess                         :      0.000u      0.000s      0.938w     20 calls
HF: Form G                          :      0.000u      0.000s      0.033w    155 calls
| JK: D                             :      0.000u      0.000s      0.001w    155 calls
| JK: USO2AO                        :      0.000u      0.000s      0.002w    155 calls
| JK: JK                            :      0.000u      0.000s      0.026w    155 calls
| | DFH: compute_JK()               :      0.000u      0.000s      0.026w    155 calls
| | | DFH: Grabbing AOs             :      0.000u      0.000s      0.000w    155 calls
| | | DFH: compute_J                :      0.000u      0.000s      0.006w    155 calls
| | | DFH: compute_K                :      0.000u      0.000s      0.016w    155 calls
| JK: AO2USO                        :      0.000u      0.000s      0.001w    155 calls
HF: Form F                          :      0.000u      0.000s      0.001w    155 calls
HF: Form D                          :      0.000u      0.000s      0.001w    155 calls
HF: DIIS                            :      0.000u      0.000s      0.620w    135 calls
HF: Form C                          :      0.000u      0.000s      0.064w    135 calls

**************************************************************************************

Host: G5

Timers On : Mon Jun  3 21:19:35 2024
Timers Off: Mon Jun  3 21:19:47 2024

Wall Time:       11.69 seconds

                                                       Time (seconds)
Module                                       User      System        Wall        Calls
DFH: sparsity prep                  :      0.000u      0.000s      0.030w     16 calls
Libint2ERI::Libint2ERI              :      0.000u      0.000s      0.027w     48 calls
DFH: initialize()                   :      0.000u      0.000s      0.488w     16 calls
DFH: AO Construction                :      0.000u      0.000s      0.061w     16 calls
DFH: AO-Met. Contraction            :      0.000u      0.000s      0.009w     16 calls
HF: Form core H                     :      0.000u      0.000s      0.094w     16 calls
HF: Form S/X                        :      0.000u      0.000s      0.002w     16 calls
HF: Guess                           :      0.000u      0.000s      0.756w     16 calls
SAD Guess                           :      0.000u      0.000s      0.741w     16 calls
HF: Form G                          :      0.000u      0.000s      0.062w    334 calls
JK: D                               :      0.000u      0.000s      0.002w    334 calls
JK: USO2AO                          :      0.000u      0.000s      0.001w    334 calls
JK: JK                              :      0.000u      0.000s      0.055w    334 calls
DFH: compute_JK()                   :      0.000u      0.000s      0.055w    334 calls
DFH: Grabbing AOs                   :      0.000u      0.000s      0.000w    334 calls
DFH: compute_J                      :      0.000u      0.000s      0.014w    334 calls
DFH: compute_K                      :      0.000u      0.000s      0.033w    334 calls
JK: AO2USO                          :      0.000u      0.000s      0.000w    334 calls
HF: Form F                          :      0.000u      0.000s      0.003w    334 calls
HF: Form D                          :      0.000u      0.000s      0.002w    334 calls
HF: DIIS                            :      0.000u      0.000s      1.590w    318 calls
HF: Form C                          :      0.000u      0.000s      0.154w    318 calls

--------------------------------------------------------------------------------------
DFH: sparsity prep                  :      0.000u      0.000s      0.030w     16 calls
| Libint2ERI::Libint2ERI            :      0.000u      0.000s      0.011w     16 calls
DFH: initialize()                   :      0.000u      0.000s      0.488w     16 calls
| Libint2ERI::Libint2ERI            :      0.000u      0.000s      0.015w     32 calls
| DFH: AO Construction              :      0.000u      0.000s      0.061w     16 calls
| DFH: AO-Met. Contraction          :      0.000u      0.000s      0.009w     16 calls
HF: Form core H                     :      0.000u      0.000s      0.094w     16 calls
HF: Form S/X                        :      0.000u      0.000s      0.002w     16 calls
HF: Guess                           :      0.000u      0.000s      0.756w     16 calls
| SAD Guess                         :      0.000u      0.000s      0.741w     16 calls
HF: Form G                          :      0.000u      0.000s      0.062w    334 calls
| JK: D                             :      0.000u      0.000s      0.002w    334 calls
| JK: USO2AO                        :      0.000u      0.000s      0.001w    334 calls
| JK: JK                            :      0.000u      0.000s      0.055w    334 calls
| | DFH: compute_JK()               :      0.000u      0.000s      0.055w    334 calls
| | | DFH: Grabbing AOs             :      0.000u      0.000s      0.000w    334 calls
| | | DFH: compute_J                :      0.000u      0.000s      0.014w    334 calls
| | | DFH: compute_K                :      0.000u      0.000s      0.033w    334 calls
| JK: AO2USO                        :      0.000u      0.000s      0.000w    334 calls
HF: Form F                          :      0.000u      0.000s      0.003w    334 calls
HF: Form D                          :      0.000u      0.000s      0.002w    334 calls
HF: DIIS                            :      0.000u      0.000s      1.590w    318 calls
HF: Form C                          :      0.000u      0.000s      0.154w    318 calls

**************************************************************************************

Host: G5

Timers On : Mon Jun  3 21:19:49 2024
Timers Off: Mon Jun  3 21:20:12 2024

Wall Time:       22.69 seconds

                                                       Time (seconds)
Module                                       User      System        Wall        Calls
DFH: sparsity prep                  :      0.000u      0.000s      0.035w     20 calls
Libint2ERI::Libint2ERI              :      0.000u      0.000s      0.032w     60 calls
DFH: initialize()                   :      0.000u      0.000s      0.682w     20 calls
DFH: AO Construction                :      0.000u      0.000s      0.076w     20 calls
DFH: AO-Met. Contraction            :      0.000u      0.000s      0.011w     20 calls
HF: Form core H                     :      0.000u      0.000s      0.152w     20 calls
HF: Form S/X                        :      0.000u      0.000s      0.003w     20 calls
HF: Guess                           :      0.000u      0.000s      0.903w     20 calls
SAD Guess                           :      0.000u      0.000s      0.882w     20 calls
HF: Form G                          :      0.000u      0.000s      0.070w    348 calls
JK: D                               :      0.000u      0.000s      0.002w    348 calls
JK: USO2AO                          :      0.000u      0.000s      0.005w    348 calls
JK: JK                              :      0.000u      0.000s      0.056w    348 calls
DFH: compute_JK()                   :      0.000u      0.000s      0.055w    348 calls
DFH: Grabbing AOs                   :      0.000u      0.000s      0.000w    348 calls
DFH: compute_J                      :      0.000u      0.000s      0.014w    348 calls
DFH: compute_K                      :      0.000u      0.000s      0.034w    348 calls
JK: AO2USO                          :      0.000u      0.000s      0.002w    348 calls
HF: Form F                          :      0.000u      0.000s      0.003w    348 calls
HF: Form D                          :      0.000u      0.000s      0.002w    348 calls
HF: DIIS                            :      0.000u      0.000s      1.735w    328 calls
HF: Form C                          :      0.000u      0.000s      0.155w    328 calls

--------------------------------------------------------------------------------------
DFH: sparsity prep                  :      0.000u      0.000s      0.035w     20 calls
| Libint2ERI::Libint2ERI            :      0.000u      0.000s      0.014w     20 calls
DFH: initialize()                   :      0.000u      0.000s      0.682w     20 calls
| Libint2ERI::Libint2ERI            :      0.000u      0.000s      0.018w     40 calls
| DFH: AO Construction              :      0.000u      0.000s      0.076w     20 calls
| DFH: AO-Met. Contraction          :      0.000u      0.000s      0.011w     20 calls
HF: Form core H                     :      0.000u      0.000s      0.152w     20 calls
HF: Form S/X                        :      0.000u      0.000s      0.003w     20 calls
HF: Guess                           :      0.000u      0.000s      0.903w     20 calls
| SAD Guess                         :      0.000u      0.000s      0.882w     20 calls
HF: Form G                          :      0.000u      0.000s      0.070w    348 calls
| JK: D                             :      0.000u      0.000s      0.002w    348 calls
| JK: USO2AO                        :      0.000u      0.000s      0.005w    348 calls
| JK: JK                            :      0.000u      0.000s      0.056w    348 calls
| | DFH: compute_JK()               :      0.000u      0.000s      0.055w    348 calls
| | | DFH: Grabbing AOs             :      0.000u      0.000s      0.000w    348 calls
| | | DFH: compute_J                :      0.000u      0.000s      0.014w    348 calls
| | | DFH: compute_K                :      0.000u      0.000s      0.034w    348 calls
| JK: AO2USO                        :      0.000u      0.000s      0.002w    348 calls
HF: Form F                          :      0.000u      0.000s      0.003w    348 calls
HF: Form D                          :      0.000u      0.000s      0.002w    348 calls
HF: DIIS                            :      0.000u      0.000s      1.735w    328 calls
HF: Form C                          :      0.000u      0.000s      0.155w    328 calls

**************************************************************************************

Host: G5

Timers On : Mon Jun  3 21:20:14 2024
Timers Off: Mon Jun  3 21:20:29 2024

Wall Time:       15.07 seconds

                                                       Time (seconds)
Module                                       User      System        Wall        Calls
DFH: sparsity prep                  :      0.000u      0.000s      0.035w     20 calls
Libint2ERI::Libint2ERI              :      0.000u      0.000s      0.032w     60 calls
DFH: initialize()                   :      0.000u      0.000s      0.912w     20 calls
DFH: AO Construction                :      0.000u      0.000s      0.076w     20 calls
DFH: AO-Met. Contraction            :      0.000u      0.000s      0.011w     20 calls
HF: Form core H                     :      0.000u      0.000s      0.083w     20 calls
HF: Form S/X                        :      0.000u      0.000s      0.003w     20 calls
HF: Guess                           :      0.000u      0.000s      0.762w     20 calls
SAD Guess                           :      0.000u      0.000s      0.742w     20 calls
HF: Form G                          :      0.000u      0.000s      0.029w    148 calls
JK: D                               :      0.000u      0.000s      0.001w    148 calls
JK: USO2AO                          :      0.000u      0.000s      0.002w    148 calls
JK: JK                              :      0.000u      0.000s      0.023w    148 calls
DFH: compute_JK()                   :      0.000u      0.000s      0.023w    148 calls
DFH: Grabbing AOs                   :      0.000u      0.000s      0.000w    148 calls
DFH: compute_J                      :      0.000u      0.000s      0.006w    148 calls
DFH: compute_K                      :      0.000u      0.000s      0.014w    148 calls
JK: AO2USO                          :      0.000u      0.000s      0.001w    148 calls
HF: Form F                          :      0.000u      0.000s      0.001w    148 calls
HF: Form D                          :      0.000u      0.000s      0.001w    148 calls
HF: DIIS                            :      0.000u      0.000s      0.612w    128 calls
HF: Form C                          :      0.000u      0.000s      0.057w    128 calls

--------------------------------------------------------------------------------------
DFH: sparsity prep                  :      0.000u      0.000s      0.035w     20 calls
| Libint2ERI::Libint2ERI            :      0.000u      0.000s      0.013w     20 calls
DFH: initialize()                   :      0.000u      0.000s      0.912w     20 calls
| Libint2ERI::Libint2ERI            :      0.000u      0.000s      0.019w     40 calls
| DFH: AO Construction              :      0.000u      0.000s      0.076w     20 calls
| DFH: AO-Met. Contraction          :      0.000u      0.000s      0.011w     20 calls
HF: Form core H                     :      0.000u      0.000s      0.083w     20 calls
HF: Form S/X                        :      0.000u      0.000s      0.003w     20 calls
HF: Guess                           :      0.000u      0.000s      0.762w     20 calls
| SAD Guess                         :      0.000u      0.000s      0.742w     20 calls
HF: Form G                          :      0.000u      0.000s      0.029w    148 calls
| JK: D                             :      0.000u      0.000s      0.001w    148 calls
| JK: USO2AO                        :      0.000u      0.000s      0.002w    148 calls
| JK: JK                            :      0.000u      0.000s      0.023w    148 calls
| | DFH: compute_JK()               :      0.000u      0.000s      0.023w    148 calls
| | | DFH: Grabbing AOs             :      0.000u      0.000s      0.000w    148 calls
| | | DFH: compute_J                :      0.000u      0.000s      0.006w    148 calls
| | | DFH: compute_K                :      0.000u      0.000s      0.014w    148 calls
| JK: AO2USO                        :      0.000u      0.000s      0.001w    148 calls
HF: Form F                          :      0.000u      0.000s      0.001w    148 calls
HF: Form D                          :      0.000u      0.000s      0.001w    148 calls
HF: DIIS                            :      0.000u      0.000s      0.612w    128 calls
HF: Form C                          :      0.000u      0.000s      0.057w    128 calls

**************************************************************************************

Host: G5

Timers On : Mon Jun  3 21:20:31 2024
Timers Off: Mon Jun  3 21:20:42 2024

Wall Time:       11.10 seconds

                                                       Time (seconds)
Module                                       User      System        Wall        Calls
DFH: sparsity prep                  :      0.000u      0.000s      0.028w     15 calls
Libint2ERI::Libint2ERI              :      0.000u      0.000s      0.025w     45 calls
DFH: initialize()                   :      0.000u      0.000s      0.664w     15 calls
DFH: AO Construction                :      0.000u      0.000s      0.074w     15 calls
DFH: AO-Met. Contraction            :      0.000u      0.000s      0.009w     15 calls
HF: Form core H                     :      0.000u      0.000s      0.051w     15 calls
HF: Form S/X                        :      0.000u      0.000s      0.002w     15 calls
HF: Guess                           :      0.000u      0.000s      0.658w     15 calls
SAD Guess                           :      0.000u      0.000s      0.642w     15 calls
HF: Form G                          :      0.000u      0.000s      0.056w    275 calls
JK: D                               :      0.000u      0.000s      0.002w    275 calls
JK: USO2AO                          :      0.000u      0.000s      0.004w    275 calls
JK: JK                              :      0.000u      0.000s      0.044w    275 calls
DFH: compute_JK()                   :      0.000u      0.000s      0.043w    275 calls
DFH: Grabbing AOs                   :      0.000u      0.000s      0.000w    275 calls
DFH: compute_J                      :      0.000u      0.000s      0.012w    275 calls
DFH: compute_K                      :      0.000u      0.000s      0.026w    275 calls
JK: AO2USO                          :      0.000u      0.000s      0.002w    275 calls
HF: Form F                          :      0.000u      0.000s      0.002w    275 calls
HF: Form D                          :      0.000u      0.000s      0.002w    275 calls
HF: DIIS                            :      0.000u      0.000s      1.489w    260 calls
HF: Form C                          :      0.000u      0.000s      0.118w    260 calls

--------------------------------------------------------------------------------------
DFH: sparsity prep                  :      0.000u      0.000s      0.028w     15 calls
| Libint2ERI::Libint2ERI            :      0.000u      0.000s      0.011w     15 calls
DFH: initialize()                   :      0.000u      0.000s      0.664w     15 calls
| Libint2ERI::Libint2ERI            :      0.000u      0.000s      0.015w     30 calls
| DFH: AO Construction              :      0.000u      0.000s      0.074w     15 calls
| DFH: AO-Met. Contraction          :      0.000u      0.000s      0.009w     15 calls
HF: Form core H                     :      0.000u      0.000s      0.051w     15 calls
HF: Form S/X                        :      0.000u      0.000s      0.002w     15 calls
HF: Guess                           :      0.000u      0.000s      0.658w     15 calls
| SAD Guess                         :      0.000u      0.000s      0.642w     15 calls
HF: Form G                          :      0.000u      0.000s      0.056w    275 calls
| JK: D                             :      0.000u      0.000s      0.002w    275 calls
| JK: USO2AO                        :      0.000u      0.000s      0.004w    275 calls
| JK: JK                            :      0.000u      0.000s      0.044w    275 calls
| | DFH: compute_JK()               :      0.000u      0.000s      0.043w    275 calls
| | | DFH: Grabbing AOs             :      0.000u      0.000s      0.000w    275 calls
| | | DFH: compute_J                :      0.000u      0.000s      0.012w    275 calls
| | | DFH: compute_K                :      0.000u      0.000s      0.026w    275 calls
| JK: AO2USO                        :      0.000u      0.000s      0.002w    275 calls
HF: Form F                          :      0.000u      0.000s      0.002w    275 calls
HF: Form D                          :      0.000u      0.000s      0.002w    275 calls
HF: DIIS                            :      0.000u      0.000s      1.489w    260 calls
HF: Form C                          :      0.000u      0.000s      0.118w    260 calls

**************************************************************************************

Host: G5

Timers On : Mon Jun  3 21:20:45 2024
Timers Off: Mon Jun  3 21:21:05 2024

Wall Time:       20.76 seconds

                                                       Time (seconds)
Module                                       User      System        Wall        Calls
DFH: sparsity prep                  :      0.000u      0.000s      0.035w     20 calls
Libint2ERI::Libint2ERI              :      0.000u      0.000s      0.031w     60 calls
DFH: initialize()                   :      0.000u      0.000s      1.040w     20 calls
DFH: AO Construction                :      0.000u      0.000s      0.080w     20 calls
DFH: AO-Met. Contraction            :      0.000u      0.000s      0.010w     20 calls
HF: Form core H                     :      0.000u      0.000s      0.087w     20 calls
HF: Form S/X                        :      0.000u      0.000s      0.003w     20 calls
HF: Guess                           :      0.000u      0.000s      0.782w     20 calls
SAD Guess                           :      0.000u      0.000s      0.764w     20 calls
HF: Form G                          :      0.000u      0.000s      0.078w    423 calls
JK: D                               :      0.000u      0.000s      0.002w    423 calls
JK: USO2AO                          :      0.000u      0.000s      0.001w    423 calls
JK: JK                              :      0.000u      0.000s      0.069w    423 calls
DFH: compute_JK()                   :      0.000u      0.000s      0.068w    423 calls
DFH: Grabbing AOs                   :      0.000u      0.000s      0.000w    423 calls
DFH: compute_J                      :      0.000u      0.000s      0.017w    423 calls
DFH: compute_K                      :      0.000u      0.000s      0.043w    423 calls
JK: AO2USO                          :      0.000u      0.000s      0.000w    423 calls
HF: Form F                          :      0.000u      0.000s      0.004w    423 calls
HF: Form D                          :      0.000u      0.000s      0.002w    423 calls
HF: DIIS                            :      0.000u      0.000s      1.991w    403 calls
HF: Form C                          :      0.000u      0.000s      0.189w    403 calls

--------------------------------------------------------------------------------------
DFH: sparsity prep                  :      0.000u      0.000s      0.035w     20 calls
| Libint2ERI::Libint2ERI            :      0.000u      0.000s      0.013w     20 calls
DFH: initialize()                   :      0.000u      0.000s      1.040w     20 calls
| Libint2ERI::Libint2ERI            :      0.000u      0.000s      0.017w     40 calls
| DFH: AO Construction              :      0.000u      0.000s      0.080w     20 calls
| DFH: AO-Met. Contraction          :      0.000u      0.000s      0.010w     20 calls
HF: Form core H                     :      0.000u      0.000s      0.087w     20 calls
HF: Form S/X                        :      0.000u      0.000s      0.003w     20 calls
HF: Guess                           :      0.000u      0.000s      0.782w     20 calls
| SAD Guess                         :      0.000u      0.000s      0.764w     20 calls
HF: Form G                          :      0.000u      0.000s      0.078w    423 calls
| JK: D                             :      0.000u      0.000s      0.002w    423 calls
| JK: USO2AO                        :      0.000u      0.000s      0.001w    423 calls
| JK: JK                            :      0.000u      0.000s      0.069w    423 calls
| | DFH: compute_JK()               :      0.000u      0.000s      0.068w    423 calls
| | | DFH: Grabbing AOs             :      0.000u      0.000s      0.000w    423 calls
| | | DFH: compute_J                :      0.000u      0.000s      0.017w    423 calls
| | | DFH: compute_K                :      0.000u      0.000s      0.043w    423 calls
| JK: AO2USO                        :      0.000u      0.000s      0.000w    423 calls
HF: Form F                          :      0.000u      0.000s      0.004w    423 calls
HF: Form D                          :      0.000u      0.000s      0.002w    423 calls
HF: DIIS                            :      0.000u      0.000s      1.991w    403 calls
HF: Form C                          :      0.000u      0.000s      0.189w    403 calls

**************************************************************************************

Host: G5

Timers On : Mon Jun  3 21:21:08 2024
Timers Off: Mon Jun  3 21:21:24 2024

Wall Time:       16.65 seconds

                                                       Time (seconds)
Module                                       User      System        Wall        Calls
DFH: sparsity prep                  :      0.000u      0.000s      0.037w     20 calls
Libint2ERI::Libint2ERI              :      0.000u      0.000s      0.032w     60 calls
DFH: initialize()                   :      0.000u      0.000s      0.822w     20 calls
DFH: AO Construction                :      0.000u      0.000s      0.084w     20 calls
DFH: AO-Met. Contraction            :      0.000u      0.000s      0.011w     20 calls
HF: Form core H                     :      0.000u      0.000s      0.129w     20 calls
HF: Form S/X                        :      0.000u      0.000s      0.003w     20 calls
HF: Guess                           :      0.000u      0.000s      0.791w     20 calls
SAD Guess                           :      0.000u      0.000s      0.771w     20 calls
HF: Form G                          :      0.000u      0.000s      0.029w    147 calls
JK: D                               :      0.000u      0.000s      0.001w    147 calls
JK: USO2AO                          :      0.000u      0.000s      0.002w    147 calls
JK: JK                              :      0.000u      0.000s      0.023w    147 calls
DFH: compute_JK()                   :      0.000u      0.000s      0.023w    147 calls
DFH: Grabbing AOs                   :      0.000u      0.000s      0.000w    147 calls
DFH: compute_J                      :      0.000u      0.000s      0.006w    147 calls
DFH: compute_K                      :      0.000u      0.000s      0.014w    147 calls
JK: AO2USO                          :      0.000u      0.000s      0.001w    147 calls
HF: Form F                          :      0.000u      0.000s      0.001w    147 calls
HF: Form D                          :      0.000u      0.000s      0.001w    147 calls
HF: DIIS                            :      0.000u      0.000s      0.536w    127 calls
HF: Form C                          :      0.000u      0.000s      0.055w    127 calls

--------------------------------------------------------------------------------------
DFH: sparsity prep                  :      0.000u      0.000s      0.037w     20 calls
| Libint2ERI::Libint2ERI            :      0.000u      0.000s      0.014w     20 calls
DFH: initialize()                   :      0.000u      0.000s      0.822w     20 calls
| Libint2ERI::Libint2ERI            :      0.000u      0.000s      0.018w     40 calls
| DFH: AO Construction              :      0.000u      0.000s      0.084w     20 calls
| DFH: AO-Met. Contraction          :      0.000u      0.000s      0.011w     20 calls
HF: Form core H                     :      0.000u      0.000s      0.129w     20 calls
HF: Form S/X                        :      0.000u      0.000s      0.003w     20 calls
HF: Guess                           :      0.000u      0.000s      0.791w     20 calls
| SAD Guess                         :      0.000u      0.000s      0.771w     20 calls
HF: Form G                          :      0.000u      0.000s      0.029w    147 calls
| JK: D                             :      0.000u      0.000s      0.001w    147 calls
| JK: USO2AO                        :      0.000u      0.000s      0.002w    147 calls
| JK: JK                            :      0.000u      0.000s      0.023w    147 calls
| | DFH: compute_JK()               :      0.000u      0.000s      0.023w    147 calls
| | | DFH: Grabbing AOs             :      0.000u      0.000s      0.000w    147 calls
| | | DFH: compute_J                :      0.000u      0.000s      0.006w    147 calls
| | | DFH: compute_K                :      0.000u      0.000s      0.014w    147 calls
| JK: AO2USO                        :      0.000u      0.000s      0.001w    147 calls
HF: Form F                          :      0.000u      0.000s      0.001w    147 calls
HF: Form D                          :      0.000u      0.000s      0.001w    147 calls
HF: DIIS                            :      0.000u      0.000s      0.536w    127 calls
HF: Form C                          :      0.000u      0.000s      0.055w    127 calls

**************************************************************************************

Host: G5

Timers On : Mon Jun  3 21:21:27 2024
Timers Off: Mon Jun  3 21:21:49 2024

Wall Time:       21.64 seconds

                                                       Time (seconds)
Module                                       User      System        Wall        Calls
DFH: sparsity prep                  :      0.000u      0.000s      0.035w     20 calls
Libint2ERI::Libint2ERI              :      0.000u      0.000s      0.031w     60 calls
DFH: initialize()                   :      0.000u      0.000s      0.713w     20 calls
DFH: AO Construction                :      0.000u      0.000s      0.077w     20 calls
DFH: AO-Met. Contraction            :      0.000u      0.000s      0.010w     20 calls
HF: Form core H                     :      0.000u      0.000s      0.129w     20 calls
HF: Form S/X                        :      0.000u      0.000s      0.003w     20 calls
HF: Guess                           :      0.000u      0.000s      0.812w     20 calls
SAD Guess                           :      0.000u      0.000s      0.794w     20 calls
HF: Form G                          :      0.000u      0.000s      0.060w    335 calls
JK: D                               :      0.000u      0.000s      0.002w    335 calls
JK: USO2AO                          :      0.000u      0.000s      0.000w    335 calls
JK: JK                              :      0.000u      0.000s      0.053w    335 calls
DFH: compute_JK()                   :      0.000u      0.000s      0.052w    335 calls
DFH: Grabbing AOs                   :      0.000u      0.000s      0.000w    335 calls
DFH: compute_J                      :      0.000u      0.000s      0.013w    335 calls
DFH: compute_K                      :      0.000u      0.000s      0.033w    335 calls
JK: AO2USO                          :      0.000u      0.000s      0.000w    335 calls
HF: Form F                          :      0.000u      0.000s      0.003w    335 calls
HF: Form D                          :      0.000u      0.000s      0.002w    335 calls
HF: DIIS                            :      0.000u      0.000s      1.387w    315 calls
HF: Form C                          :      0.000u      0.000s      0.143w    315 calls

--------------------------------------------------------------------------------------
DFH: sparsity prep                  :      0.000u      0.000s      0.035w     20 calls
| Libint2ERI::Libint2ERI            :      0.000u      0.000s      0.013w     20 calls
DFH: initialize()                   :      0.000u      0.000s      0.713w     20 calls
| Libint2ERI::Libint2ERI            :      0.000u      0.000s      0.018w     40 calls
| DFH: AO Construction              :      0.000u      0.000s      0.077w     20 calls
| DFH: AO-Met. Contraction          :      0.000u      0.000s      0.010w     20 calls
HF: Form core H                     :      0.000u      0.000s      0.129w     20 calls
HF: Form S/X                        :      0.000u      0.000s      0.003w     20 calls
HF: Guess                           :      0.000u      0.000s      0.812w     20 calls
| SAD Guess                         :      0.000u      0.000s      0.794w     20 calls
HF: Form G                          :      0.000u      0.000s      0.060w    335 calls
| JK: D                             :      0.000u      0.000s      0.002w    335 calls
| JK: USO2AO                        :      0.000u      0.000s      0.000w    335 calls
| JK: JK                            :      0.000u      0.000s      0.053w    335 calls
| | DFH: compute_JK()               :      0.000u      0.000s      0.052w    335 calls
| | | DFH: Grabbing AOs             :      0.000u      0.000s      0.000w    335 calls
| | | DFH: compute_J                :      0.000u      0.000s      0.013w    335 calls
| | | DFH: compute_K                :      0.000u      0.000s      0.033w    335 calls
| JK: AO2USO                        :      0.000u      0.000s      0.000w    335 calls
HF: Form F                          :      0.000u      0.000s      0.003w    335 calls
HF: Form D                          :      0.000u      0.000s      0.002w    335 calls
HF: DIIS                            :      0.000u      0.000s      1.387w    315 calls
HF: Form C                          :      0.000u      0.000s      0.143w    315 calls

**************************************************************************************

Host: G5

Timers On : Mon Jun  3 21:21:51 2024
Timers Off: Mon Jun  3 21:22:12 2024

Wall Time:       21.31 seconds

                                                       Time (seconds)
Module                                       User      System        Wall        Calls
DFH: sparsity prep                  :      0.000u      0.000s      0.039w     20 calls
Libint2ERI::Libint2ERI              :      0.000u      0.000s      0.033w     60 calls
DFH: initialize()                   :      0.000u      0.000s      0.715w     20 calls
DFH: AO Construction                :      0.000u      0.000s      0.079w     20 calls
DFH: AO-Met. Contraction            :      0.000u      0.000s      0.011w     20 calls
HF: Form core H                     :      0.000u      0.000s      0.147w     20 calls
HF: Form S/X                        :      0.000u      0.000s      0.003w     20 calls
HF: Guess                           :      0.000u      0.000s      0.835w     20 calls
SAD Guess                           :      0.000u      0.000s      0.814w     20 calls
HF: Form G                          :      0.000u      0.000s      0.057w    272 calls
JK: D                               :      0.000u      0.000s      0.002w    272 calls
JK: USO2AO                          :      0.000u      0.000s      0.004w    272 calls
JK: JK                              :      0.000u      0.000s      0.045w    272 calls
DFH: compute_JK()                   :      0.000u      0.000s      0.044w    272 calls
DFH: Grabbing AOs                   :      0.000u      0.000s      0.000w    272 calls
DFH: compute_J                      :      0.000u      0.000s      0.012w    272 calls
DFH: compute_K                      :      0.000u      0.000s      0.027w    272 calls
JK: AO2USO                          :      0.000u      0.000s      0.002w    272 calls
HF: Form F                          :      0.000u      0.000s      0.002w    272 calls
HF: Form D                          :      0.000u      0.000s      0.002w    272 calls
HF: DIIS                            :      0.000u      0.000s      1.446w    252 calls
HF: Form C                          :      0.000u      0.000s      0.121w    252 calls

--------------------------------------------------------------------------------------
DFH: sparsity prep                  :      0.000u      0.000s      0.039w     20 calls
| Libint2ERI::Libint2ERI            :      0.000u      0.000s      0.015w     20 calls
DFH: initialize()                   :      0.000u      0.000s      0.715w     20 calls
| Libint2ERI::Libint2ERI            :      0.000u      0.000s      0.018w     40 calls
| DFH: AO Construction              :      0.000u      0.000s      0.079w     20 calls
| DFH: AO-Met. Contraction          :      0.000u      0.000s      0.011w     20 calls
HF: Form core H                     :      0.000u      0.000s      0.147w     20 calls
HF: Form S/X                        :      0.000u      0.000s      0.003w     20 calls
HF: Guess                           :      0.000u      0.000s      0.835w     20 calls
| SAD Guess                         :      0.000u      0.000s      0.814w     20 calls
HF: Form G                          :      0.000u      0.000s      0.057w    272 calls
| JK: D                             :      0.000u      0.000s      0.002w    272 calls
| JK: USO2AO                        :      0.000u      0.000s      0.004w    272 calls
| JK: JK                            :      0.000u      0.000s      0.045w    272 calls
| | DFH: compute_JK()               :      0.000u      0.000s      0.044w    272 calls
| | | DFH: Grabbing AOs             :      0.000u      0.000s      0.000w    272 calls
| | | DFH: compute_J                :      0.000u      0.000s      0.012w    272 calls
| | | DFH: compute_K                :      0.000u      0.000s      0.027w    272 calls
| JK: AO2USO                        :      0.000u      0.000s      0.002w    272 calls
HF: Form F                          :      0.000u      0.000s      0.002w    272 calls
HF: Form D                          :      0.000u      0.000s      0.002w    272 calls
HF: DIIS                            :      0.000u      0.000s      1.446w    252 calls
HF: Form C                          :      0.000u      0.000s      0.121w    252 calls

**************************************************************************************

Host: G5

Timers On : Mon Jun  3 21:22:14 2024
Timers Off: Mon Jun  3 21:22:36 2024

Wall Time:       21.38 seconds

                                                       Time (seconds)
Module                                       User      System        Wall        Calls
DFH: sparsity prep                  :      0.000u      0.000s      0.038w     20 calls
Libint2ERI::Libint2ERI              :      0.000u      0.000s      0.036w     60 calls
DFH: initialize()                   :      0.000u      0.000s      0.826w     20 calls
DFH: AO Construction                :      0.000u      0.000s      0.087w     20 calls
DFH: AO-Met. Contraction            :      0.000u      0.000s      0.011w     20 calls
HF: Form core H                     :      0.000u      0.000s      0.060w     20 calls
HF: Form S/X                        :      0.000u      0.000s      0.003w     20 calls
HF: Guess                           :      0.000u      0.000s      0.725w     20 calls
SAD Guess                           :      0.000u      0.000s      0.704w     20 calls
HF: Form G                          :      0.000u      0.000s      0.059w    272 calls
JK: D                               :      0.000u      0.000s      0.002w    272 calls
JK: USO2AO                          :      0.000u      0.000s      0.005w    272 calls
JK: JK                              :      0.000u      0.000s      0.046w    272 calls
DFH: compute_JK()                   :      0.000u      0.000s      0.045w    272 calls
DFH: Grabbing AOs                   :      0.000u      0.000s      0.000w    272 calls
DFH: compute_J                      :      0.000u      0.000s      0.012w    272 calls
DFH: compute_K                      :      0.000u      0.000s      0.027w    272 calls
JK: AO2USO                          :      0.000u      0.000s      0.002w    272 calls
HF: Form F                          :      0.000u      0.000s      0.002w    272 calls
HF: Form D                          :      0.000u      0.000s      0.002w    272 calls
HF: DIIS                            :      0.000u      0.000s      1.401w    252 calls
HF: Form C                          :      0.000u      0.000s      0.124w    252 calls

--------------------------------------------------------------------------------------
DFH: sparsity prep                  :      0.000u      0.000s      0.038w     20 calls
| Libint2ERI::Libint2ERI            :      0.000u      0.000s      0.015w     20 calls
DFH: initialize()                   :      0.000u      0.000s      0.826w     20 calls
| Libint2ERI::Libint2ERI            :      0.000u      0.000s      0.021w     40 calls
| DFH: AO Construction              :      0.000u      0.000s      0.087w     20 calls
| DFH: AO-Met. Contraction          :      0.000u      0.000s      0.011w     20 calls
HF: Form core H                     :      0.000u      0.000s      0.060w     20 calls
HF: Form S/X                        :      0.000u      0.000s      0.003w     20 calls
HF: Guess                           :      0.000u      0.000s      0.725w     20 calls
| SAD Guess                         :      0.000u      0.000s      0.704w     20 calls
HF: Form G                          :      0.000u      0.000s      0.059w    272 calls
| JK: D                             :      0.000u      0.000s      0.002w    272 calls
| JK: USO2AO                        :      0.000u      0.000s      0.005w    272 calls
| JK: JK                            :      0.000u      0.000s      0.046w    272 calls
| | DFH: compute_JK()               :      0.000u      0.000s      0.045w    272 calls
| | | DFH: Grabbing AOs             :      0.000u      0.000s      0.000w    272 calls
| | | DFH: compute_J                :      0.000u      0.000s      0.012w    272 calls
| | | DFH: compute_K                :      0.000u      0.000s      0.027w    272 calls
| JK: AO2USO                        :      0.000u      0.000s      0.002w    272 calls
HF: Form F                          :      0.000u      0.000s      0.002w    272 calls
HF: Form D                          :      0.000u      0.000s      0.002w    272 calls
HF: DIIS                            :      0.000u      0.000s      1.401w    252 calls
HF: Form C                          :      0.000u      0.000s      0.124w    252 calls

**************************************************************************************

Host: G5

Timers On : Mon Jun  3 21:22:38 2024
Timers Off: Mon Jun  3 21:22:54 2024

Wall Time:       15.40 seconds

                                                       Time (seconds)
Module                                       User      System        Wall        Calls
DFH: sparsity prep                  :      0.000u      0.000s      0.036w     20 calls
Libint2ERI::Libint2ERI              :      0.000u      0.000s      0.032w     60 calls
DFH: initialize()                   :      0.000u      0.000s      0.759w     20 calls
DFH: AO Construction                :      0.000u      0.000s      0.080w     20 calls
DFH: AO-Met. Contraction            :      0.000u      0.000s      0.011w     20 calls
HF: Form core H                     :      0.000u      0.000s      0.117w     20 calls
HF: Form S/X                        :      0.000u      0.000s      0.003w     20 calls
HF: Guess                           :      0.000u      0.000s      0.790w     20 calls
SAD Guess                           :      0.000u      0.000s      0.771w     20 calls
HF: Form G                          :      0.000u      0.000s      0.033w    155 calls
JK: D                               :      0.000u      0.000s      0.001w    155 calls
JK: USO2AO                          :      0.000u      0.000s      0.003w    155 calls
JK: JK                              :      0.000u      0.000s      0.026w    155 calls
DFH: compute_JK()                   :      0.000u      0.000s      0.026w    155 calls
DFH: Grabbing AOs                   :      0.000u      0.000s      0.000w    155 calls
DFH: compute_J                      :      0.000u      0.000s      0.007w    155 calls
DFH: compute_K                      :      0.000u      0.000s      0.016w    155 calls
JK: AO2USO                          :      0.000u      0.000s      0.001w    155 calls
HF: Form F                          :      0.000u      0.000s      0.001w    155 calls
HF: Form D                          :      0.000u      0.000s      0.001w    155 calls
HF: DIIS                            :      0.000u      0.000s      0.744w    135 calls
HF: Form C                          :      0.000u      0.000s      0.064w    135 calls

--------------------------------------------------------------------------------------
DFH: sparsity prep                  :      0.000u      0.000s      0.036w     20 calls
| Libint2ERI::Libint2ERI            :      0.000u      0.000s      0.014w     20 calls
DFH: initialize()                   :      0.000u      0.000s      0.759w     20 calls
| Libint2ERI::Libint2ERI            :      0.000u      0.000s      0.019w     40 calls
| DFH: AO Construction              :      0.000u      0.000s      0.080w     20 calls
| DFH: AO-Met. Contraction          :      0.000u      0.000s      0.011w     20 calls
HF: Form core H                     :      0.000u      0.000s      0.117w     20 calls
HF: Form S/X                        :      0.000u      0.000s      0.003w     20 calls
HF: Guess                           :      0.000u      0.000s      0.790w     20 calls
| SAD Guess                         :      0.000u      0.000s      0.771w     20 calls
HF: Form G                          :      0.000u      0.000s      0.033w    155 calls
| JK: D                             :      0.000u      0.000s      0.001w    155 calls
| JK: USO2AO                        :      0.000u      0.000s      0.003w    155 calls
| JK: JK                            :      0.000u      0.000s      0.026w    155 calls
| | DFH: compute_JK()               :      0.000u      0.000s      0.026w    155 calls
| | | DFH: Grabbing AOs             :      0.000u      0.000s      0.000w    155 calls
| | | DFH: compute_J                :      0.000u      0.000s      0.007w    155 calls
| | | DFH: compute_K                :      0.000u      0.000s      0.016w    155 calls
| JK: AO2USO                        :      0.000u      0.000s      0.001w    155 calls
HF: Form F                          :      0.000u      0.000s      0.001w    155 calls
HF: Form D                          :      0.000u      0.000s      0.001w    155 calls
HF: DIIS                            :      0.000u      0.000s      0.744w    135 calls
HF: Form C                          :      0.000u      0.000s      0.064w    135 calls

**************************************************************************************

Host: G5

Timers On : Mon Jun  3 21:22:56 2024
Timers Off: Mon Jun  3 21:23:08 2024

Wall Time:       12.01 seconds

                                                       Time (seconds)
Module                                       User      System        Wall        Calls
DFH: sparsity prep                  :      0.000u      0.000s      0.030w     16 calls
Libint2ERI::Libint2ERI              :      0.000u      0.000s      0.027w     48 calls
DFH: initialize()                   :      0.000u      0.000s      0.520w     16 calls
DFH: AO Construction                :      0.000u      0.000s      0.066w     16 calls
DFH: AO-Met. Contraction            :      0.000u      0.000s      0.009w     16 calls
HF: Form core H                     :      0.000u      0.000s      0.064w     16 calls
HF: Form S/X                        :      0.000u      0.000s      0.002w     16 calls
HF: Guess                           :      0.000u      0.000s      0.621w     16 calls
SAD Guess                           :      0.000u      0.000s      0.605w     16 calls
HF: Form G                          :      0.000u      0.000s      0.064w    334 calls
JK: D                               :      0.000u      0.000s      0.002w    334 calls
JK: USO2AO                          :      0.000u      0.000s      0.000w    334 calls
JK: JK                              :      0.000u      0.000s      0.056w    334 calls
[...]
| DFH: AO Construction              :      0.000u      0.000s      0.076w     20 calls
| DFH: AO-Met. Contraction          :      0.000u      0.000s      0.010w     20 calls
HF: Form core H                     :      0.000u      0.000s      0.121w     20 calls
HF: Form S/X                        :      0.000u      0.000s      0.003w     20 calls
HF: Guess                           :      0.000u      0.000s      1.023w     20 calls
| SAD Guess                         :      0.000u      0.000s      1.005w     20 calls
HF: Form G                          :      0.000u      0.000s      0.026w    147 calls
| JK: D                             :      0.000u      0.000s      0.001w    147 calls
| JK: USO2AO                        :      0.000u      0.000s      0.000w    147 calls
| JK: JK                            :      0.000u      0.000s      0.023w    147 calls
| | DFH: compute_JK()               :      0.000u      0.000s      0.023w    147 calls
| | | DFH: Grabbing AOs             :      0.000u      0.000s      0.000w    147 calls
| | | DFH: compute_J                :      0.000u      0.000s      0.006w    147 calls
| | | DFH: compute_K                :      0.000u      0.000s      0.014w    147 calls
| JK: AO2USO                        :      0.000u      0.000s      0.000w    147 calls
HF: Form F                          :      0.000u      0.000s      0.001w    147 calls
HF: Form D                          :      0.000u      0.000s      0.001w    147 calls
HF: DIIS                            :      0.000u      0.000s      0.524w    127 calls
HF: Form C                          :      0.000u      0.000s      0.057w    127 calls

**************************************************************************************

Host: G5

Timers On : Thu Jun  6 21:32:22 2024
Timers Off: Thu Jun  6 21:32:36 2024

Wall Time:       14.63 seconds

                                                       Time (seconds)
Module                                       User      System        Wall        Calls
DFH: sparsity prep                  :      0.000u      0.000s      0.035w     20 calls
Libint2ERI::Libint2ERI              :      0.000u      0.000s      0.032w     60 calls
DFH: initialize()                   :      0.000u      0.000s      0.709w     20 calls
DFH: AO Construction                :      0.000u      0.000s      0.073w     20 calls
DFH: AO-Met. Contraction            :      0.000u      0.000s      0.010w     20 calls
HF: Form core H                     :      0.000u      0.000s      0.316w     20 calls
HF: Form S/X                        :      0.000u      0.000s      0.004w     20 calls
HF: Guess                           :      0.000u      0.000s      0.932w     20 calls
SAD Guess                           :      0.000u      0.000s      0.913w     20 calls
HF: Form G                          :      0.000u      0.000s      0.031w    147 calls
JK: D                               :      0.000u      0.000s      0.001w    147 calls
JK: USO2AO                          :      0.000u      0.000s      0.002w    147 calls
JK: JK                              :      0.000u      0.000s      0.024w    147 calls
DFH: compute_JK()                   :      0.000u      0.000s      0.024w    147 calls
DFH: Grabbing AOs                   :      0.000u      0.000s      0.000w    147 calls
DFH: compute_J                      :      0.000u      0.000s      0.006w    147 calls
DFH: compute_K                      :      0.000u      0.000s      0.015w    147 calls
JK: AO2USO                          :      0.000u      0.000s      0.001w    147 calls
HF: Form F                          :      0.000u      0.000s      0.001w    147 calls
HF: Form D                          :      0.000u      0.000s      0.001w    147 calls
HF: DIIS                            :      0.000u      0.000s      0.607w    127 calls
HF: Form C                          :      0.000u      0.000s      0.058w    127 calls

--------------------------------------------------------------------------------------
DFH: sparsity prep                  :      0.000u      0.000s      0.035w     20 calls
| Libint2ERI::Libint2ERI            :      0.000u      0.000s      0.013w     20 calls
DFH: initialize()                   :      0.000u      0.000s      0.709w     20 calls
| Libint2ERI::Libint2ERI            :      0.000u      0.000s      0.019w     40 calls
| DFH: AO Construction              :      0.000u      0.000s      0.073w     20 calls
| DFH: AO-Met. Contraction          :      0.000u      0.000s      0.010w     20 calls
HF: Form core H                     :      0.000u      0.000s      0.316w     20 calls
HF: Form S/X                        :      0.000u      0.000s      0.004w     20 calls
HF: Guess                           :      0.000u      0.000s      0.932w     20 calls
| SAD Guess                         :      0.000u      0.000s      0.913w     20 calls
HF: Form G                          :      0.000u      0.000s      0.031w    147 calls
| JK: D                             :      0.000u      0.000s      0.001w    147 calls
| JK: USO2AO                        :      0.000u      0.000s      0.002w    147 calls
| JK: JK                            :      0.000u      0.000s      0.024w    147 calls
| | DFH: compute_JK()               :      0.000u      0.000s      0.024w    147 calls
| | | DFH: Grabbing AOs             :      0.000u      0.000s      0.000w    147 calls
| | | DFH: compute_J                :      0.000u      0.000s      0.006w    147 calls
| | | DFH: compute_K                :      0.000u      0.000s      0.015w    147 calls
| JK: AO2USO                        :      0.000u      0.000s      0.001w    147 calls
HF: Form F                          :      0.000u      0.000s      0.001w    147 calls
HF: Form D                          :      0.000u      0.000s      0.001w    147 calls
HF: DIIS                            :      0.000u      0.000s      0.607w    127 calls
HF: Form C                          :      0.000u      0.000s      0.058w    127 calls

**************************************************************************************

Host: G5

Timers On : Thu Jun  6 21:33:45 2024
Timers Off: Thu Jun  6 21:33:46 2024

Wall Time:        1.24 seconds

                                                       Time (seconds)
Module                                       User      System        Wall        Calls

--------------------------------------------------------------------------------------

**************************************************************************************

Host: G5

Timers On : Thu Jun  6 21:33:40 2024
Timers Off: Thu Jun  6 21:39:54 2024

Wall Time:      373.86 seconds

                                                       Time (seconds)
Module                                       User      System        Wall        Calls
DFH: sparsity prep                  :      0.000u      0.000s      0.950w    540 calls
Libint2ERI::Libint2ERI              :      0.000u      0.000s      1.553w   3700 calls
DFH: initialize()                   :      0.000u      0.000s     19.674w    540 calls
DFH: AO Construction                :      0.000u      0.000s      2.144w    540 calls
DFH: AO-Met. Contraction            :      0.000u      0.000s      0.264w    540 calls
HF: Form core H                     :      0.000u      0.000s      7.295w    540 calls
HF: Form S/X                        :      0.000u      0.000s      0.104w    540 calls
HF: Guess                           :      0.000u      0.000s     19.766w    540 calls
SAD Guess                           :      0.000u      0.000s     19.176w    540 calls
HF: Form G                          :      0.000u      0.000s      0.942w   5325 calls
JK: D                               :      0.000u      0.000s      0.029w   5325 calls
JK: USO2AO                          :      0.000u      0.000s      0.059w   5325 calls
JK: JK                              :      0.000u      0.000s      0.769w   5325 calls
DFH: compute_JK()                   :      0.000u      0.000s      0.757w   5325 calls
DFH: Grabbing AOs                   :      0.000u      0.000s      0.001w   5325 calls
DFH: compute_J                      :      0.000u      0.000s      0.173w   5325 calls
DFH: compute_K                      :      0.000u      0.000s      0.498w   5325 calls
JK: AO2USO                          :      0.000u      0.000s      0.021w   5325 calls
HF: Form F                          :      0.000u      0.000s      0.031w   5325 calls
HF: Form D                          :      0.000u      0.000s      0.028w   5325 calls
HF: DIIS                            :      0.000u      0.000s     18.722w   4785 calls
HF: Form C                          :      0.000u      0.000s      2.099w   4785 calls
Grad: V T Perturb                   :      0.000u      0.000s      0.201w    520 calls
Grad: S                             :      0.000u      0.000s      0.041w    520 calls
Grad: JK                            :      0.000u      0.000s     19.628w    520 calls
JKGrad: Amn                         :      0.000u      0.000s      3.479w    520 calls
JKGrad: Awmn                        :      0.000u      0.000s      0.000w    520 calls
JKGrad: AB                          :      0.000u      0.000s      5.650w    520 calls
JKGrad: UV                          :      0.000u      0.000s      0.276w    520 calls
JKGrad: ABx                         :      0.000u      0.000s      2.530w    520 calls
JKGrad: Amnx                        :      0.000u      0.000s      5.878w    520 calls
Grad: XC                            :      0.000u      0.000s      0.000w    520 calls

--------------------------------------------------------------------------------------
DFH: sparsity prep                  :      0.000u      0.000s      0.950w    540 calls
| Libint2ERI::Libint2ERI            :      0.000u      0.000s      0.355w    540 calls
DFH: initialize()                   :      0.000u      0.000s     19.674w    540 calls
| Libint2ERI::Libint2ERI            :      0.000u      0.000s      0.410w   1080 calls
| DFH: AO Construction              :      0.000u      0.000s      2.144w    540 calls
| DFH: AO-Met. Contraction          :      0.000u      0.000s      0.264w    540 calls
HF: Form core H                     :      0.000u      0.000s      7.295w    540 calls
HF: Form S/X                        :      0.000u      0.000s      0.104w    540 calls
HF: Guess                           :      0.000u      0.000s     19.766w    540 calls
| SAD Guess                         :      0.000u      0.000s     19.176w    540 calls
HF: Form G                          :      0.000u      0.000s      0.942w   5325 calls
| JK: D                             :      0.000u      0.000s      0.029w   5325 calls
| JK: USO2AO                        :      0.000u      0.000s      0.059w   5325 calls
| JK: JK                            :      0.000u      0.000s      0.769w   5325 calls
| | DFH: compute_JK()               :      0.000u      0.000s      0.757w   5325 calls
| | | DFH: Grabbing AOs             :      0.000u      0.000s      0.001w   5325 calls
| | | DFH: compute_J                :      0.000u      0.000s      0.173w   5325 calls
| | | DFH: compute_K                :      0.000u      0.000s      0.498w   5325 calls
| JK: AO2USO                        :      0.000u      0.000s      0.021w   5325 calls
HF: Form F                          :      0.000u      0.000s      0.031w   5325 calls
HF: Form D                          :      0.000u      0.000s      0.028w   5325 calls
HF: DIIS                            :      0.000u      0.000s     18.722w   4785 calls
HF: Form C                          :      0.000u      0.000s      2.099w   4785 calls
Grad: V T Perturb                   :      0.000u      0.000s      0.201w    520 calls
Grad: S                             :      0.000u      0.000s      0.041w    520 calls
Grad: JK                            :      0.000u      0.000s     19.628w    520 calls
| JKGrad: Amn                       :      0.000u      0.000s      3.479w    520 calls
| | Libint2ERI::Libint2ERI          :      0.000u      0.000s      0.346w    520 calls
| JKGrad: Awmn                      :      0.000u      0.000s      0.000w    520 calls
| JKGrad: AB                        :      0.000u      0.000s      5.650w    520 calls
| | Libint2ERI::Libint2ERI          :      0.000u      0.000s      0.042w    520 calls
| JKGrad: UV                        :      0.000u      0.000s      0.276w    520 calls
| JKGrad: ABx                       :      0.000u      0.000s      2.530w    520 calls
| | Libint2ERI::Libint2ERI          :      0.000u      0.000s      0.053w    520 calls
| JKGrad: Amnx                      :      0.000u      0.000s      5.878w    520 calls
| | Libint2ERI::Libint2ERI          :      0.000u      0.000s      0.349w    520 calls
Grad: XC                            :      0.000u      0.000s      0.000w    520 calls

**************************************************************************************

Host: G5

Timers On : Sun Jun  9 20:22:14 2024
Timers Off: Sun Jun  9 20:22:15 2024

Wall Time:        1.19 seconds

                                                       Time (seconds)
Module                                       User      System        Wall        Calls

--------------------------------------------------------------------------------------

**************************************************************************************

Host: G5

Timers On : Sun Jun  9 20:22:09 2024
Timers Off: Sun Jun  9 20:38:19 2024

Wall Time:      970.23 seconds

                                                       Time (seconds)
Module                                       User      System        Wall        Calls
DFH: sparsity prep                  :      0.000u      0.000s      0.934w    540 calls
Libint2ERI::Libint2ERI              :      0.000u      0.000s      1.558w   3700 calls
DFH: initialize()                   :      0.000u      0.000s     19.291w    540 calls
DFH: AO Construction                :      0.000u      0.000s      2.114w    540 calls
DFH: AO-Met. Contraction            :      0.000u      0.000s      0.267w    540 calls
HF: Form core H                     :      0.000u      0.000s      7.001w    540 calls
HF: Form S/X                        :      0.000u      0.000s      0.096w    540 calls
HF: Guess                           :      0.000u      0.000s     20.002w    540 calls
SAD Guess                           :      0.000u      0.000s     19.424w    540 calls
HF: Form G                          :      0.000u      0.000s      0.956w   5325 calls
JK: D                               :      0.000u      0.000s      0.026w   5325 calls
JK: USO2AO                          :      0.000u      0.000s      0.058w   5325 calls
JK: JK                              :      0.000u      0.000s      0.788w   5325 calls
DFH: compute_JK()                   :      0.000u      0.000s      0.774w   5325 calls
DFH: Grabbing AOs                   :      0.000u      0.000s      0.001w   5325 calls
DFH: compute_J                      :      0.000u      0.000s      0.181w   5325 calls
DFH: compute_K                      :      0.000u      0.000s      0.504w   5325 calls
JK: AO2USO                          :      0.000u      0.000s      0.021w   5325 calls
HF: Form F                          :      0.000u      0.000s      0.033w   5325 calls
HF: Form D                          :      0.000u      0.000s      0.026w   5325 calls
HF: DIIS                            :      0.000u      0.000s     18.813w   4785 calls
HF: Form C                          :      0.000u      0.000s      2.053w   4785 calls
Grad: V T Perturb                   :      0.000u      0.000s      0.202w    520 calls
Grad: S                             :      0.000u      0.000s      0.040w    520 calls
Grad: JK                            :      0.000u      0.000s     19.606w    520 calls
JKGrad: Amn                         :      0.000u      0.000s      3.635w    520 calls
JKGrad: Awmn                        :      0.000u      0.000s      0.000w    520 calls
JKGrad: AB                          :      0.000u      0.000s      5.628w    520 calls
JKGrad: UV                          :      0.000u      0.000s      0.267w    520 calls
JKGrad: ABx                         :      0.000u      0.000s      2.488w    520 calls
JKGrad: Amnx                        :      0.000u      0.000s      5.787w    520 calls
Grad: XC                            :      0.000u      0.000s      0.000w    520 calls

--------------------------------------------------------------------------------------
DFH: sparsity prep                  :      0.000u      0.000s      0.934w    540 calls
| Libint2ERI::Libint2ERI            :      0.000u      0.000s      0.352w    540 calls
DFH: initialize()                   :      0.000u      0.000s     19.291w    540 calls
| Libint2ERI::Libint2ERI            :      0.000u      0.000s      0.424w   1080 calls
| DFH: AO Construction              :      0.000u      0.000s      2.114w    540 calls
| DFH: AO-Met. Contraction          :      0.000u      0.000s      0.267w    540 calls
HF: Form core H                     :      0.000u      0.000s      7.001w    540 calls
HF: Form S/X                        :      0.000u      0.000s      0.096w    540 calls
HF: Guess                           :      0.000u      0.000s     20.002w    540 calls
| SAD Guess                         :      0.000u      0.000s     19.424w    540 calls
HF: Form G                          :      0.000u      0.000s      0.956w   5325 calls
| JK: D                             :      0.000u      0.000s      0.026w   5325 calls
| JK: USO2AO                        :      0.000u      0.000s      0.058w   5325 calls
| JK: JK                            :      0.000u      0.000s      0.788w   5325 calls
| | DFH: compute_JK()               :      0.000u      0.000s      0.774w   5325 calls
| | | DFH: Grabbing AOs             :      0.000u      0.000s      0.001w   5325 calls
| | | DFH: compute_J                :      0.000u      0.000s      0.181w   5325 calls
| | | DFH: compute_K                :      0.000u      0.000s      0.504w   5325 calls
| JK: AO2USO                        :      0.000u      0.000s      0.021w   5325 calls
HF: Form F                          :      0.000u      0.000s      0.033w   5325 calls
HF: Form D                          :      0.000u      0.000s      0.026w   5325 calls
HF: DIIS                            :      0.000u      0.000s     18.813w   4785 calls
HF: Form C                          :      0.000u      0.000s      2.053w   4785 calls
Grad: V T Perturb                   :      0.000u      0.000s      0.202w    520 calls
Grad: S                             :      0.000u      0.000s      0.040w    520 calls
Grad: JK                            :      0.000u      0.000s     19.606w    520 calls
| JKGrad: Amn                       :      0.000u      0.000s      3.635w    520 calls
| | Libint2ERI::Libint2ERI          :      0.000u      0.000s      0.344w    520 calls
| JKGrad: Awmn                      :      0.000u      0.000s      0.000w    520 calls
| JKGrad: AB                        :      0.000u      0.000s      5.628w    520 calls
| | Libint2ERI::Libint2ERI          :      0.000u      0.000s      0.043w    520 calls
| JKGrad: UV                        :      0.000u      0.000s      0.267w    520 calls
| JKGrad: ABx                       :      0.000u      0.000s      2.488w    520 calls
| | Libint2ERI::Libint2ERI          :      0.000u      0.000s      0.053w    520 calls
| JKGrad: Amnx                      :      0.000u      0.000s      5.787w    520 calls
| | Libint2ERI::Libint2ERI          :      0.000u      0.000s      0.342w    520 calls
Grad: XC                            :      0.000u      0.000s      0.000w    520 calls

**************************************************************************************
